B3LYP/6-31G* opted                                                      
SP        RPBE1PBE TD-FC                                              6-31G(d)            
Number of atoms                            I               12
Info1-9                                    I   N=           9
          20          19           0           0           0         111
           1         218        -301
Charge                                     I                0
Multiplicity                               I                1
Number of electrons                        I               58
Number of alpha electrons                  I               29
Number of beta electrons                   I               29
Number of basis functions                  I              128
Number of independent functions            I              128
Number of point charges in /Mol/           I                0
Number of translation vectors              I                0
Atomic numbers                             I   N=          12
           6           6           6           6           1           1
           1           1           7           7           8           8
Nuclear charges                            R   N=          12
  6.00000000E+00  6.00000000E+00  6.00000000E+00  6.00000000E+00  1.00000000E+00
  1.00000000E+00  1.00000000E+00  1.00000000E+00  7.00000000E+00  7.00000000E+00
  8.00000000E+00  8.00000000E+00
Current cartesian coordinates              R   N=          36
 -2.33853259E+00  6.91133601E-01 -2.99810331E-18  1.00861959E-01 -3.23007987E+00
  1.32666688E-17  2.34613239E+00 -2.01824756E+00  8.44653156E-18  2.42263618E+00
  7.40168121E-01 -2.87171242E-18 -3.89644143E-02  3.78212368E+00 -1.55285913E-17
 -3.82853913E+00 -2.86181634E+00  1.14844826E-17 -5.97507215E-02 -5.27378486E+00
  2.16451816E-17  4.12136189E+00 -3.03044648E+00  1.27238642E-17 -2.03785766E-16
  1.86650697E+00 -7.66215518E-18 -2.15628960E+00 -1.93978551E+00  7.81456532E-18
  4.31738789E+00  2.05123768E+00 -8.12335027E-18 -4.35322140E+00  1.79864080E+00
 -7.68316424E-18
Force Field                                I                0
Int Atom Types                             I   N=          12
           0           0           0           0           0           0
           0           0           0           0           0           0
MM charges                                 R   N=          12
  0.00000000E+00  0.00000000E+00  0.00000000E+00  0.00000000E+00  0.00000000E+00
  0.00000000E+00  0.00000000E+00  0.00000000E+00  0.00000000E+00  0.00000000E+00
  0.00000000E+00  0.00000000E+00
Integer atomic weights                     I   N=          12
          12          12          12          12           1           1
           1           1          14          14          16          16
Real atomic weights                        R   N=          12
  1.20000000E+01  1.20000000E+01  1.20000000E+01  1.20000000E+01  1.00782504E+00
  1.00782504E+00  1.00782504E+00  1.00782504E+00  1.40030740E+01  1.40030740E+01
  1.59949146E+01  1.59949146E+01
Atom fragment info                         I   N=          12
           0           0           0           0           0           0
           0           0           0           0           0           0
Atom residue num                           I   N=          12
           0           0           0           0           0           0
           0           0           0           0           0           0
Nuclear spins                              I   N=          12
           0           0           0           0           1           1
           1           1           2           2           0           0
Nuclear ZEff                               R   N=          12
 -3.60000000E+00 -3.60000000E+00 -3.60000000E+00 -3.60000000E+00 -1.00000000E+00
 -1.00000000E+00 -1.00000000E+00 -1.00000000E+00 -4.55000000E+00 -4.55000000E+00
 -5.60000000E+00 -5.60000000E+00
Nuclear ZNuc                               R   N=          12
  6.00000000E+00  6.00000000E+00  6.00000000E+00  6.00000000E+00  1.00000000E+00
  1.00000000E+00  1.00000000E+00  1.00000000E+00  7.00000000E+00  7.00000000E+00
  8.00000000E+00  8.00000000E+00
Nuclear QMom                               R   N=          12
  0.00000000E+00  0.00000000E+00  0.00000000E+00  0.00000000E+00  0.00000000E+00
  0.00000000E+00  0.00000000E+00  0.00000000E+00  2.04400000E+00  2.04400000E+00
  0.00000000E+00  0.00000000E+00
Nuclear GFac                               R   N=          12
  0.00000000E+00  0.00000000E+00  0.00000000E+00  0.00000000E+00  2.79284600E+00
  2.79284600E+00  2.79284600E+00  2.79284600E+00  4.03761000E-01  4.03761000E-01
  0.00000000E+00  0.00000000E+00
MicOpt                                     I   N=          12
          -1          -1          -1          -1          -1          -1
          -1          -1          -1          -1          -1          -1
Number of contracted shells                I               40
Number of primitive shells                 I              104
Pure/Cartesian d shells                    I                1
Pure/Cartesian f shells                    I                0
Highest angular momentum                   I                2
Largest degree of contraction              I                6
Shell types                                I   N=          40
           0          -1          -1           2           0          -1
          -1           2           0          -1          -1           2
           0          -1          -1           2           0           0
           0           0           0           0           0           0
           0          -1          -1           2           0          -1
          -1           2           0          -1          -1           2
           0          -1          -1           2
Number of primitives per shell             I   N=          40
           6           3           1           1           6           3
           1           1           6           3           1           1
           6           3           1           1           3           1
           3           1           3           1           3           1
           6           3           1           1           6           3
           1           1           6           3           1           1
           6           3           1           1
Shell to atom map                          I   N=          40
           1           1           1           1           2           2
           2           2           3           3           3           3
           4           4           4           4           5           5
           6           6           7           7           8           8
           9           9           9           9          10          10
          10          10          11          11          11          11
          12          12          12          12
Primitive exponents                        R   N=         104
  3.04752488E+03  4.57369518E+02  1.03948685E+02  2.92101553E+01  9.28666296E+00
  3.16392696E+00  7.86827235E+00  1.88128854E+00  5.44249258E-01  1.68714478E-01
  8.00000000E-01  3.04752488E+03  4.57369518E+02  1.03948685E+02  2.92101553E+01
  9.28666296E+00  3.16392696E+00  7.86827235E+00  1.88128854E+00  5.44249258E-01
  1.68714478E-01  8.00000000E-01  3.04752488E+03  4.57369518E+02  1.03948685E+02
  2.92101553E+01  9.28666296E+00  3.16392696E+00  7.86827235E+00  1.88128854E+00
  5.44249258E-01  1.68714478E-01  8.00000000E-01  3.04752488E+03  4.57369518E+02
  1.03948685E+02  2.92101553E+01  9.28666296E+00  3.16392696E+00  7.86827235E+00
  1.88128854E+00  5.44249258E-01  1.68714478E-01  8.00000000E-01  1.87311370E+01
  2.82539436E+00  6.40121692E-01  1.61277759E-01  1.87311370E+01  2.82539436E+00
  6.40121692E-01  1.61277759E-01  1.87311370E+01  2.82539436E+00  6.40121692E-01
  1.61277759E-01  1.87311370E+01  2.82539436E+00  6.40121692E-01  1.61277759E-01
  4.17351146E+03  6.27457911E+02  1.42902093E+02  4.02343293E+01  1.28202129E+01
  4.39043701E+00  1.16263619E+01  2.71627981E+00  7.72218397E-01  2.12031498E-01
  8.00000000E-01  4.17351146E+03  6.27457911E+02  1.42902093E+02  4.02343293E+01
  1.28202129E+01  4.39043701E+00  1.16263619E+01  2.71627981E+00  7.72218397E-01
  2.12031498E-01  8.00000000E-01  5.48467166E+03  8.25234946E+02  1.88046958E+02
  5.29645000E+01  1.68975704E+01  5.79963534E+00  1.55396162E+01  3.59993359E+00
  1.01376175E+00  2.70005823E-01  8.00000000E-01  5.48467166E+03  8.25234946E+02
  1.88046958E+02  5.29645000E+01  1.68975704E+01  5.79963534E+00  1.55396162E+01
  3.59993359E+00  1.01376175E+00  2.70005823E-01  8.00000000E-01
Contraction coefficients                   R   N=         104
  1.83473713E-03  1.40373228E-02  6.88426223E-02  2.32184443E-01  4.67941348E-01
  3.62311985E-01 -1.19332420E-01 -1.60854152E-01  1.14345644E+00  1.00000000E+00
  1.00000000E+00  1.83473713E-03  1.40373228E-02  6.88426223E-02  2.32184443E-01
  4.67941348E-01  3.62311985E-01 -1.19332420E-01 -1.60854152E-01  1.14345644E+00
  1.00000000E+00  1.00000000E+00  1.83473713E-03  1.40373228E-02  6.88426223E-02
  2.32184443E-01  4.67941348E-01  3.62311985E-01 -1.19332420E-01 -1.60854152E-01
  1.14345644E+00  1.00000000E+00  1.00000000E+00  1.83473713E-03  1.40373228E-02
  6.88426223E-02  2.32184443E-01  4.67941348E-01  3.62311985E-01 -1.19332420E-01
 -1.60854152E-01  1.14345644E+00  1.00000000E+00  1.00000000E+00  3.34946043E-02
  2.34726953E-01  8.13757326E-01  1.00000000E+00  3.34946043E-02  2.34726953E-01
  8.13757326E-01  1.00000000E+00  3.34946043E-02  2.34726953E-01  8.13757326E-01
  1.00000000E+00  3.34946043E-02  2.34726953E-01  8.13757326E-01  1.00000000E+00
  1.83477216E-03  1.39946270E-02  6.85865518E-02  2.32240873E-01  4.69069948E-01
  3.60455199E-01 -1.14961182E-01 -1.69117479E-01  1.14585195E+00  1.00000000E+00
  1.00000000E+00  1.83477216E-03  1.39946270E-02  6.85865518E-02  2.32240873E-01
  4.69069948E-01  3.60455199E-01 -1.14961182E-01 -1.69117479E-01  1.14585195E+00
  1.00000000E+00  1.00000000E+00  1.83107443E-03  1.39501722E-02  6.84450781E-02
  2.32714336E-01  4.70192898E-01  3.58520853E-01 -1.10777550E-01 -1.48026263E-01
  1.13076702E+00  1.00000000E+00  1.00000000E+00  1.83107443E-03  1.39501722E-02
  6.84450781E-02  2.32714336E-01  4.70192898E-01  3.58520853E-01 -1.10777550E-01
 -1.48026263E-01  1.13076702E+00  1.00000000E+00  1.00000000E+00
P(S=P) Contraction coefficients            R   N=         104
  0.00000000E+00  0.00000000E+00  0.00000000E+00  0.00000000E+00  0.00000000E+00
  0.00000000E+00  6.89990666E-02  3.16423961E-01  7.44308291E-01  1.00000000E+00
  0.00000000E+00  0.00000000E+00  0.00000000E+00  0.00000000E+00  0.00000000E+00
  0.00000000E+00  0.00000000E+00  6.89990666E-02  3.16423961E-01  7.44308291E-01
  1.00000000E+00  0.00000000E+00  0.00000000E+00  0.00000000E+00  0.00000000E+00
  0.00000000E+00  0.00000000E+00  0.00000000E+00  6.89990666E-02  3.16423961E-01
  7.44308291E-01  1.00000000E+00  0.00000000E+00  0.00000000E+00  0.00000000E+00
  0.00000000E+00  0.00000000E+00  0.00000000E+00  0.00000000E+00  6.89990666E-02
  3.16423961E-01  7.44308291E-01  1.00000000E+00  0.00000000E+00  0.00000000E+00
  0.00000000E+00  0.00000000E+00  0.00000000E+00  0.00000000E+00  0.00000000E+00
  0.00000000E+00  0.00000000E+00  0.00000000E+00  0.00000000E+00  0.00000000E+00
  0.00000000E+00  0.00000000E+00  0.00000000E+00  0.00000000E+00  0.00000000E+00
  0.00000000E+00  0.00000000E+00  0.00000000E+00  0.00000000E+00  0.00000000E+00
  0.00000000E+00  6.75797439E-02  3.23907296E-01  7.40895140E-01  1.00000000E+00
  0.00000000E+00  0.00000000E+00  0.00000000E+00  0.00000000E+00  0.00000000E+00
  0.00000000E+00  0.00000000E+00  6.75797439E-02  3.23907296E-01  7.40895140E-01
  1.00000000E+00  0.00000000E+00  0.00000000E+00  0.00000000E+00  0.00000000E+00
  0.00000000E+00  0.00000000E+00  0.00000000E+00  7.08742682E-02  3.39752839E-01
  7.27158577E-01  1.00000000E+00  0.00000000E+00  0.00000000E+00  0.00000000E+00
  0.00000000E+00  0.00000000E+00  0.00000000E+00  0.00000000E+00  7.08742682E-02
  3.39752839E-01  7.27158577E-01  1.00000000E+00  0.00000000E+00
Coordinates of each shell                  R   N=         120
 -2.33853259E+00  6.91133602E-01 -1.05320917E-31 -2.33853259E+00  6.91133602E-01
 -1.05320917E-31 -2.33853259E+00  6.91133602E-01 -1.05320917E-31 -2.33853259E+00
  6.91133602E-01 -1.05320917E-31  1.00861963E-01 -3.23007987E+00  3.30983900E-33
  1.00861963E-01 -3.23007987E+00  3.30983900E-33  1.00861963E-01 -3.23007987E+00
  3.30983900E-33  1.00861963E-01 -3.23007987E+00  3.30983900E-33  2.34613239E+00
 -2.01824756E+00  1.05152870E-31  2.34613239E+00 -2.01824756E+00  1.05152870E-31
  2.34613239E+00 -2.01824756E+00  1.05152870E-31  2.34613239E+00 -2.01824756E+00
  1.05152870E-31  2.42263618E+00  7.40168124E-01  1.09669597E-31  2.42263618E+00
  7.40168124E-01  1.09669597E-31  2.42263618E+00  7.40168124E-01  1.09669597E-31
  2.42263618E+00  7.40168124E-01  1.09669597E-31 -3.89644156E-02  3.78212368E+00
 -3.02462066E-34 -3.89644156E-02  3.78212368E+00 -3.02462066E-34 -3.82853913E+00
 -2.86181634E+00 -1.73964779E-31 -3.82853913E+00 -2.86181634E+00 -1.73964779E-31
 -5.97507165E-02 -5.27378486E+00 -4.72919384E-33 -5.97507165E-02 -5.27378486E+00
 -4.72919384E-33  4.12136189E+00 -3.03044648E+00  1.84916408E-31  4.12136189E+00
 -3.03044648E+00  1.84916408E-31 -5.27338097E-37  1.86650698E+00  7.18952335E-34
 -5.27338097E-37  1.86650698E+00  7.18952335E-34 -5.27338097E-37  1.86650698E+00
  7.18952335E-34 -5.27338097E-37  1.86650698E+00  7.18952335E-34 -2.15628959E+00
 -1.93978551E+00 -9.81058531E-32 -2.15628959E+00 -1.93978551E+00 -9.81058531E-32
 -2.15628959E+00 -1.93978551E+00 -9.81058531E-32 -2.15628959E+00 -1.93978551E+00
 -9.81058531E-32  4.31738789E+00  2.05123769E+00  1.95724575E-31  4.31738789E+00
  2.05123769E+00  1.95724575E-31  4.31738789E+00  2.05123769E+00  1.95724575E-31
  4.31738789E+00  2.05123769E+00  1.95724575E-31 -4.35322140E+00  1.79864080E+00
 -1.95859576E-31 -4.35322140E+00  1.79864080E+00 -1.95859576E-31 -4.35322140E+00
  1.79864080E+00 -1.95859576E-31 -4.35322140E+00  1.79864080E+00 -1.95859576E-31
Constraint Structure                       R   N=          36
 -2.33853259E+00  6.91133602E-01 -1.05320917E-31  1.00861963E-01 -3.23007987E+00
  3.30983900E-33  2.34613239E+00 -2.01824756E+00  1.05152870E-31  2.42263618E+00
  7.40168124E-01  1.09669597E-31 -3.89644156E-02  3.78212368E+00 -3.02462066E-34
 -3.82853913E+00 -2.86181634E+00 -1.73964779E-31 -5.97507165E-02 -5.27378486E+00
 -4.72919384E-33  4.12136189E+00 -3.03044648E+00  1.84916408E-31 -5.27338097E-37
  1.86650698E+00  7.18952335E-34 -2.15628959E+00 -1.93978551E+00 -9.81058531E-32
  4.31738789E+00  2.05123769E+00  1.95724575E-31 -4.35322140E+00  1.79864080E+00
 -1.95859576E-31
Num ILSW                                   I              100
ILSW                                       I   N=         100
           0           1           0           0           2           0
           0           0           0           0        1009          -1
           0           0           0           0           0           0
           0           0           1           0           0           0
           1           0           0           0           0           0
           0           0      100000           0          -1           0
           0           0           0           0           0           0
           0           0           0           1           0           0
           0           0           1           0           0           0
           0           0           4          41           0           0
           0           0          13           0           0           0
           0           0           0           0           0           0
           0           0           0           0           0           0
           0           0           0           0           0           0
           0           0           0           0           0           0
           0           0           0           0           0           0
           0           0           0           0
Num RLSW                                   I               41
RLSW                                       R   N=          41
  7.50000000E-01  7.50000000E-01  1.00000000E+00  1.00000000E+00  2.50000000E-01
  0.00000000E+00  0.00000000E+00  1.00000000E+00  0.00000000E+00  0.00000000E+00
  0.00000000E+00  0.00000000E+00  1.00000000E+00  0.00000000E+00  0.00000000E+00
  0.00000000E+00  0.00000000E+00  1.00000000E+00  0.00000000E+00  0.00000000E+00
  0.00000000E+00  0.00000000E+00  1.00000000E+00  0.00000000E+00  0.00000000E+00
  0.00000000E+00  0.00000000E+00  1.00000000E+00  0.00000000E+00  0.00000000E+00
  0.00000000E+00  0.00000000E+00  1.00000000E+00  0.00000000E+00  0.00000000E+00
  0.00000000E+00  0.00000000E+00  0.00000000E+00  1.00000000E+00  1.00000000E+00
  0.00000000E+00
MxBond                                     I                3
NBond                                      I   N=          12
           3           3           3           3           1           1
           1           1           3           3           1           1
IBond                                      I   N=          36
           9          10          12           3           7          10
           2           4           8           3           9          11
           9           0           0          10           0           0
           2           0           0           3           0           0
           1           4           5           1           2           6
           4           0           0           1           0           0
RBond                                      R   N=          36
  1.00000000E+00  1.00000000E+00  2.00000000E+00  2.00000000E+00  1.00000000E+00
  1.00000000E+00  2.00000000E+00  1.00000000E+00  1.00000000E+00  1.00000000E+00
  1.00000000E+00  2.00000000E+00  1.00000000E+00  0.00000000E+00  0.00000000E+00
  1.00000000E+00  0.00000000E+00  0.00000000E+00  1.00000000E+00  0.00000000E+00
  0.00000000E+00  1.00000000E+00  0.00000000E+00  0.00000000E+00  1.00000000E+00
  1.00000000E+00  1.00000000E+00  1.00000000E+00  1.00000000E+00  1.00000000E+00
  2.00000000E+00  0.00000000E+00  0.00000000E+00  2.00000000E+00  0.00000000E+00
  0.00000000E+00
Virial Ratio                               R      2.008633649291626E+00
SCF Energy                                 R     -4.143651797410671E+02
CIS Energy                                 R     -4.141889011426640E+02
Total Energy                               R     -4.141889011426640E+02
Post-SCF wavefunction norm                 R      1.000000000000000E+00
RMS Density                                R      9.697222145445015E-09
External E-field                           R   N=          35
  0.00000000E+00  0.00000000E+00  0.00000000E+00  0.00000000E+00  0.00000000E+00
  0.00000000E+00  0.00000000E+00  0.00000000E+00  0.00000000E+00  0.00000000E+00
  0.00000000E+00  0.00000000E+00  0.00000000E+00  0.00000000E+00  0.00000000E+00
  0.00000000E+00  0.00000000E+00  0.00000000E+00  0.00000000E+00  0.00000000E+00
  0.00000000E+00  0.00000000E+00  0.00000000E+00  0.00000000E+00  0.00000000E+00
  0.00000000E+00  0.00000000E+00  0.00000000E+00  0.00000000E+00  0.00000000E+00
  0.00000000E+00  0.00000000E+00  0.00000000E+00  0.00000000E+00  0.00000000E+00
IOpCl                                      I                0
IROHF                                      I                0
Alpha Orbital Energies                     R   N=         128
 -1.92111492E+01 -1.92041498E+01 -1.44774038E+01 -1.44569254E+01 -1.03914832E+01
 -1.03571576E+01 -1.03243892E+01 -1.02583298E+01 -1.10865056E+00 -1.07289731E+00
 -1.00997139E+00 -9.54756844E-01 -8.25541640E-01 -7.13703775E-01 -6.85148193E-01
 -6.18940899E-01 -5.76382536E-01 -5.39668141E-01 -4.96401429E-01 -4.89629034E-01
 -4.67588250E-01 -4.38147355E-01 -4.32585084E-01 -4.19256121E-01 -3.83669123E-01
 -3.10307313E-01 -2.98156322E-01 -2.77781493E-01 -2.63026283E-01 -3.75986532E-02
  1.69117920E-02  6.35223857E-02  1.16618081E-01  1.25482539E-01  1.30927984E-01
  1.64598214E-01  2.03624453E-01  2.17212621E-01  2.61418481E-01  2.72366669E-01
  3.28116832E-01  3.50407274E-01  3.90535766E-01  4.75522079E-01  4.98515607E-01
  5.08256183E-01  5.33169061E-01  5.86260088E-01  5.87074850E-01  5.96708991E-01
  6.04901468E-01  6.43012548E-01  6.57338983E-01  6.73561416E-01  6.98724386E-01
  7.53885261E-01  7.87323530E-01  8.19575867E-01  8.28509098E-01  8.40626506E-01
  8.48787016E-01  8.64085962E-01  8.82626840E-01  9.05904776E-01  9.42177313E-01
  1.00115455E+00  1.03385210E+00  1.03528936E+00  1.05669776E+00  1.07776952E+00
  1.11180907E+00  1.13528351E+00  1.19106980E+00  1.21698270E+00  1.31564685E+00
  1.34311894E+00  1.35351484E+00  1.38855779E+00  1.42436587E+00  1.44271044E+00
  1.44896880E+00  1.45449140E+00  1.46567454E+00  1.56496758E+00  1.62095099E+00
  1.74866368E+00  1.77902198E+00  1.79447442E+00  1.80773052E+00  1.82770422E+00
  1.83665287E+00  1.86087714E+00  1.91160691E+00  1.96444993E+00  1.97016124E+00
  1.98409542E+00  2.00522496E+00  2.06403491E+00  2.14200498E+00  2.17371021E+00
  2.17430237E+00  2.21434320E+00  2.27166632E+00  2.30924996E+00  2.30983829E+00
  2.39003659E+00  2.55688477E+00  2.60276012E+00  2.61624753E+00  2.63997204E+00
  2.64116476E+00  2.66878874E+00  2.73086104E+00  2.78871733E+00  2.81736318E+00
  2.97485866E+00  2.99342486E+00  3.00294420E+00  3.21872685E+00  3.38880751E+00
  3.93147071E+00  3.98012529E+00  4.01009030E+00  4.16521983E+00  4.20695766E+00
  4.39349898E+00  4.59832866E+00  4.67871943E+00
Alpha MO coefficients                      R   N=       16384
 -2.32312671E-05  3.93407663E-04  5.32859036E-05 -3.51950878E-05  0.00000000E+00
 -2.66910510E-03  3.81600615E-03 -2.09060417E-03  0.00000000E+00 -7.94290306E-04
 -2.61516461E-04 -8.71112593E-05  4.74753911E-04  0.00000000E+00  0.00000000E+00
  3.09761983E-05  1.15799730E-04 -8.08059231E-05  8.26731319E-05  0.00000000E+00
  3.77453355E-05 -1.63125081E-04 -2.50093350E-04  0.00000000E+00  9.92410748E-05
  1.87089656E-05  6.62095598E-05 -1.74621346E-05  0.00000000E+00  0.00000000E+00
  9.46975522E-06  3.89167544E-05 -2.89962220E-05  2.56725274E-05  0.00000000E+00
  2.13178522E-04 -2.35333628E-06 -3.01385082E-05  0.00000000E+00  1.44565391E-05
 -1.22846406E-05  3.10196917E-05 -3.17079779E-05  0.00000000E+00  0.00000000E+00
  3.51603290E-05  1.01270881E-04 -9.41741942E-05  4.15025924E-05  0.00000000E+00
  3.59454297E-04  1.97549376E-04  3.56633598E-04  0.00000000E+00  1.17365741E-04
  7.62075360E-05  6.64854250E-05 -2.41757113E-05  0.00000000E+00  0.00000000E+00
 -7.66739421E-05 -1.76175330E-04 -7.61324221E-05 -1.83349699E-04 -1.94722936E-05
 -1.50720057E-04 -1.28379846E-05 -3.72101956E-05  1.68754925E-05  1.07084726E-04
  3.77377304E-05 -4.89836166E-05  0.00000000E+00 -1.03023600E-03 -3.29761305E-04
  8.06830575E-04  0.00000000E+00 -7.24586028E-05  8.41754000E-05  2.75498884E-05
  7.11787408E-05  0.00000000E+00  0.00000000E+00  1.12174111E-05  8.81483545E-05
  5.44805680E-05 -1.54147686E-05  0.00000000E+00 -8.51773435E-04 -8.24033317E-04
 -1.73905287E-04  0.00000000E+00 -2.30658627E-05 -1.84409713E-06  1.65380980E-05
  1.02407813E-04  0.00000000E+00  0.00000000E+00 -4.80692456E-05  9.25014977E-05
 -4.90124854E-07  2.87311579E-06  0.00000000E+00 -5.90297681E-04  1.64458773E-04
  8.24280499E-05  0.00000000E+00  3.89178229E-05  5.23557672E-05  6.48708956E-05
 -2.59262991E-05  0.00000000E+00  0.00000000E+00  9.92979350E-01  2.49044415E-02
  1.13819264E-03 -6.33449890E-04  0.00000000E+00  1.39651260E-02  1.54804235E-03
 -8.52279671E-04  0.00000000E+00 -7.19442886E-03 -7.51964481E-03 -7.65753291E-03
 -3.00193920E-04  0.00000000E+00  0.00000000E+00  3.64830347E-05  1.06758169E-04
  9.26887546E-05  3.82692043E-05  0.00000000E+00  4.69858824E-04 -1.19248235E-04
  1.91223618E-04  0.00000000E+00  1.26489005E-04  8.04665100E-05  6.64833812E-05
  1.92794223E-05  0.00000000E+00  0.00000000E+00  1.44347730E-05  6.04966488E-05
  6.29891579E-05  6.01607257E-05  0.00000000E+00  1.03210995E-03  2.34179520E-04
  1.70331462E-04  0.00000000E+00  6.14440408E-05 -1.34967767E-05  4.20947969E-05
  3.67403067E-06  0.00000000E+00  0.00000000E+00  1.38801815E-05  1.10131168E-04
 -4.94492018E-05 -1.19426715E-05  0.00000000E+00 -1.74949845E-03  1.62991864E-03
 -5.10157509E-04  0.00000000E+00 -3.54859785E-05 -1.83159232E-06  2.40205332E-05
 -5.79133449E-05  0.00000000E+00  0.00000000E+00 -3.56388518E-05  3.28123608E-04
 -3.62309477E-05 -5.83887424E-06  0.00000000E+00 -2.02580958E-03 -4.08170361E-03
 -2.74557748E-03  0.00000000E+00 -6.69352835E-04 -3.63499368E-04 -1.08013140E-04
 -5.19675447E-04  0.00000000E+00  0.00000000E+00 -7.91688785E-05 -2.35436507E-04
 -1.96767208E-05 -1.66542815E-05 -1.16518718E-05 -6.81209994E-05 -8.28912877E-05
 -5.48089928E-04  2.18399496E-05  1.42289654E-04 -4.19734109E-05 -4.46588513E-05
  0.00000000E+00 -1.24638863E-03  1.62273649E-04  9.95934852E-04  0.00000000E+00
 -9.34665756E-05  6.20016612E-05  4.75056616E-05 -4.11044976E-05  0.00000000E+00
  0.00000000E+00  1.21918465E-05  4.55652686E-05  2.04290035E-05  1.48137522E-05
  0.00000000E+00 -2.05425799E-04 -1.13408888E-04 -5.39794986E-05  0.00000000E+00
  2.53003461E-05 -2.37917964E-06  4.28707865E-05  3.25479858E-05  0.00000000E+00
  0.00000000E+00  9.92972000E-01  2.48541962E-02 -1.05369134E-03 -6.88298158E-04
  0.00000000E+00  1.42363415E-02 -1.48155883E-03 -1.04407976E-03  0.00000000E+00
 -7.28311940E-03 -7.49105273E-03 -7.68044838E-03  3.20829091E-04  0.00000000E+00
  0.00000000E+00  8.80449635E-05  8.81779324E-05 -7.83025513E-07  3.98282140E-06
  0.00000000E+00 -5.09683654E-04 -1.68440778E-04  7.17926768E-05  0.00000000E+00
  2.23569211E-05  4.90173382E-05  6.38310635E-05  2.86626318E-05  0.00000000E+00
  0.00000000E+00  2.12676575E-05  1.50116317E-04  1.02990544E-05 -3.01283720E-04
  0.00000000E+00  2.48367816E-05  2.89669881E-04 -6.40681613E-04  0.00000000E+00
  5.17859253E-05  1.00048148E-04 -3.35135704E-05 -8.97488893E-06  0.00000000E+00
  0.00000000E+00  2.42840407E-05  1.74053013E-04 -2.43320448E-04  1.43379710E-04
  0.00000000E+00  4.49060274E-04  1.50579543E-04  5.89967319E-04  0.00000000E+00
  4.67592444E-05  2.91459169E-05 -4.14176600E-05 -1.25363516E-05  0.00000000E+00
  0.00000000E+00  1.01468782E-05  9.64032548E-05  3.38515198E-05  1.76716797E-05
  0.00000000E+00 -7.61250335E-04  4.70218094E-04 -2.84172134E-04  0.00000000E+00
 -7.34124047E-05  5.07899165E-06  8.43313659E-06  8.10528392E-07  0.00000000E+00
  0.00000000E+00  3.10965184E-06  6.11498899E-06 -1.60457825E-05  9.53730732E-09
  0.00000000E+00  4.82587524E-04 -1.32121697E-04 -1.59034315E-04  0.00000000E+00
  9.18710654E-06  1.49948971E-05  7.34847299E-06  9.68663710E-07  0.00000000E+00
  0.00000000E+00 -3.30509858E-05 -2.62552975E-05  2.50418638E-04 -4.84762751E-04
  2.79274258E-06  2.14999658E-04 -1.30583493E-05 -1.66926331E-04 -1.53720642E-04
  9.03637770E-06  3.93564456E-05  2.26549169E-05  0.00000000E+00 -7.94266299E-05
 -2.07004680E-04  2.55191616E-04  0.00000000E+00 -1.15751345E-05 -5.02724994E-05
 -2.11908871E-05 -3.78632132E-05  0.00000000E+00  0.00000000E+00  9.92993657E-01
  3.36888476E-02  9.09226007E-05 -2.26858960E-05  0.00000000E+00  1.98966855E-03
 -4.41167410E-04 -4.02903983E-04  0.00000000E+00 -7.54383876E-03 -7.59957621E-03
 -7.54967410E-03  4.09909118E-05  0.00000000E+00  0.00000000E+00  2.70620252E-07
  3.12471433E-06  3.27717906E-06 -2.83700529E-06  0.00000000E+00 -2.53354525E-06
  4.90118079E-06  3.14972222E-05  0.00000000E+00  2.60556801E-07 -2.96710181E-06
  1.31940353E-06 -7.42554883E-06  0.00000000E+00  0.00000000E+00 -1.76295139E-05
 -6.68494824E-05 -2.65241295E-05  1.24983939E-05  0.00000000E+00  5.18943210E-04
  1.45473512E-04  1.17105646E-04  0.00000000E+00 -3.55798235E-05 -1.27242711E-04
 -5.24968579E-05  5.36538147E-05  0.00000000E+00  0.00000000E+00  2.46777919E-05
  1.90051024E-04  2.55451000E-04  1.37106717E-04  0.00000000E+00  1.63126239E-05
  7.02375884E-04  2.11623249E-04  0.00000000E+00  4.09518171E-05  4.63455012E-05
 -3.17227436E-05 -4.74957156E-06  0.00000000E+00  0.00000000E+00  4.85522788E-06
  2.55209060E-05 -6.87072075E-07  1.78708228E-05  0.00000000E+00  5.37791001E-04
  7.98821941E-05  1.26833023E-04  0.00000000E+00  1.33979908E-05 -7.26989016E-06
  1.05694053E-05  7.12708686E-06  0.00000000E+00  0.00000000E+00  5.44332767E-06
  7.49420511E-05 -3.68795141E-06 -3.85920165E-05  0.00000000E+00 -4.54735707E-04
  5.72880174E-04 -7.14948893E-05  0.00000000E+00 -2.25089495E-05 -5.29379206E-05
 -2.82355621E-07  3.65350029E-05  0.00000000E+00  0.00000000E+00  1.04304438E-05
  9.37103428E-05 -2.53496096E-04  1.34163070E-04  0.00000000E+00  5.82206624E-05
 -7.58125829E-04 -2.19381065E-04  0.00000000E+00  1.15461557E-04  5.47351429E-05
 -4.29967058E-05 -4.67160069E-05  0.00000000E+00  0.00000000E+00  2.66608782E-04
 -4.48593075E-04 -3.59286676E-05 -2.41717639E-05 -7.17679961E-06 -4.36730243E-06
 -2.97870768E-05 -1.75697751E-04  9.92993606E-01  3.37398326E-02 -1.52156916E-04
 -4.65194638E-05  0.00000000E+00  1.72584681E-03  1.80425298E-04  5.34095245E-04
  0.00000000E+00 -7.63761024E-03 -7.52453645E-03 -7.54931518E-03  1.94349057E-05
  0.00000000E+00  0.00000000E+00  1.46452673E-04  3.24089573E-06  8.96140596E-07
 -4.80592293E-05  0.00000000E+00  6.82930456E-05 -3.13565592E-04  9.55914221E-05
  0.00000000E+00 -1.61438135E-05 -5.88262012E-05 -3.28788369E-05 -4.03912572E-05