 BH3
GAUSSIAN              4 MOL ORBITALS     40 PRIMITIVES        4 NUCLEI
  B    1    (CENTRE  1)   0.00000000  0.00000000  2.88655667  CHARGE =  5.0
  H    2    (CENTRE  2)   2.21526925  0.00000000  3.39597014  CHARGE =  1.0
  H    3    (CENTRE  3)  -1.10764408 -1.91848776  3.39597014  CHARGE =  1.0
  H    4    (CENTRE  4)  -1.10764408  1.91848776  3.39597014  CHARGE =  1.0
CENTRE ASSIGNMENTS    1  1  1  1  1  1  1  1  1  1  1  1  1  1  1  1  1  1  1  1
CENTRE ASSIGNMENTS    1  1  1  1  1  1  1  1  2  2  2  2  3  3  3  3  4  4  4  4
TYPE ASSIGNMENTS      1  1  1  1  1  1  1  1  1  2  2  2  3  3  3  4  4  4  1  2
TYPE ASSIGNMENTS      3  4  5  6  7  8  9 10  1  1  1  1  1  1  1  1  1  1  1  1
EXPONENTS  0.2068882D+04 0.3106496D+03 0.7068303D+02 0.1986108D+02 0.6299305D+01
EXPONENTS  0.2127027D+01 0.4727971D+01 0.1190338D+01 0.3594117D+00 0.4727971D+01
EXPONENTS  0.1190338D+01 0.3594117D+00 0.4727971D+01 0.1190338D+01 0.3594117D+00
EXPONENTS  0.4727971D+01 0.1190338D+01 0.3594117D+00 0.1267512D+00 0.1267512D+00
EXPONENTS  0.1267512D+00 0.1267512D+00 0.6000000D+00 0.6000000D+00 0.6000000D+00
EXPONENTS  0.6000000D+00 0.6000000D+00 0.6000000D+00 0.1873114D+02 0.2825394D+01
EXPONENTS  0.6401217D+00 0.1612778D+00 0.1873114D+02 0.2825394D+01 0.6401217D+00
EXPONENTS  0.1612778D+00 0.1873114D+02 0.2825394D+01 0.6401217D+00 0.1612778D+00
MO    1     MO 0.0        OCC NO =    2.0000000  ORB. ENERGY =   -7.616224
  0.40649227D+00  0.74875202D+00  0.12038394D+01  0.15535894D+01  0.13186650D+01
  0.45449296D+00 -0.70391053D-02 -0.25094476D-02  0.88387297D-02  0.16878422D-08
  0.12421836D-08  0.67144367D-09 -0.63649565D-15 -0.46843508D-15 -0.25320553D-15
 -0.75100737D-03 -0.55271108D-03 -0.29875965D-03 -0.17424799D-02  0.10175811D-08
  0.96928351D-16 -0.19650571D-04  0.32562870D-04  0.32550762D-04 -0.64676129D-03
  0.63567699D-15  0.51731846D-08 -0.30707764D-15 -0.24814461D-04 -0.42090022D-04
 -0.47918002D-04  0.41607113D-03 -0.24815605D-04 -0.42091963D-04 -0.47920213D-04
  0.41607230D-03 -0.24815605D-04 -0.42091963D-04 -0.47920213D-04  0.41607230D-03
MO    2     MO 0.0        OCC NO =    2.0000000  ORB. ENERGY =   -0.701827
 -0.76926550D-01 -0.14169743D+00 -0.22782034D+00 -0.29400871D+00 -0.24955049D+00
 -0.86010431D-01 -0.91026024D-01 -0.32450862D-01  0.11429782D+00  0.13455344D-05
  0.99025898D-06  0.53526958D-06 -0.19936649D-15 -0.14672568D-15 -0.79310359D-16
  0.36566867D-01  0.26911736D-01  0.14546734D-01  0.36929756D-01  0.12600837D-07
 -0.10020530D-15 -0.59970867D-03  0.22037791D-01  0.22037439D-01 -0.50109848D-02
  0.42459951D-16  0.11503666D-06  0.18578813D-16  0.34571068D-01  0.58639074D-01
  0.66758513D-01  0.22742475D-01  0.34570617D-01  0.58638310D-01  0.66757644D-01
  0.22742244D-01  0.34570617D-01  0.58638310D-01  0.66757644D-01  0.22742244D-01
MO    3     MO 0.0        OCC NO =    2.0000000  ORB. ENERGY =   -0.486280
  0.14495074D-06  0.26699686D-06  0.42927608D-06  0.55399314D-06  0.47022164D-06
  0.16206727D-06  0.15667461D-07  0.55854645D-08 -0.19673019D-07  0.29918923D+00
  0.22019118D+00  0.11902103D+00 -0.27403803D-10 -0.20168092D-10 -0.10901558D-10
  0.24339775D-06  0.17913091D-06  0.96826514D-07 -0.33425452D-06  0.15595110D-01
 -0.14282125D-11  0.27771165D-08  0.23052616D-01 -0.23052857D-01 -0.22666100D-07
  0.42231882D-11  0.14885490D-01 -0.13634564D-11  0.58215155D-01  0.98743922D-01
  0.11241646D+00  0.54348586D-01 -0.29107765D-01 -0.49372279D-01 -0.56208595D-01
 -0.27174523D-01 -0.29107765D-01 -0.49372280D-01 -0.56208595D-01 -0.27174523D-01
MO    4     MO 0.0        OCC NO =    2.0000000  ORB. ENERGY =   -0.486279
  0.17160639D-15  0.31609612D-15  0.50821760D-15  0.65586944D-15  0.55669282D-15
  0.19187055D-15 -0.95980913D-15 -0.34217285D-15  0.12051948D-14  0.27404252D-10
  0.20168422D-10  0.10901737D-10  0.29918833D+00  0.22019052D+00  0.11902067D+00
  0.48918474D-15  0.36002020D-15  0.19460350D-15 -0.18820279D-14  0.14285346D-11
  0.15595238D-01 -0.21894180D-15  0.21114308D-11 -0.21118867D-11  0.29159199D-15
 -0.46105453D-01  0.13633701D-11  0.14885388D-01  0.53322334D-11  0.90444771D-11
  0.10296818D-10  0.49786852D-11 -0.50415856D-01 -0.85514834D-01 -0.97355616D-01
 -0.47067549D-01  0.50415856D-01  0.85514834D-01  0.97355616D-01  0.47067549D-01
END DATA
 TOTAL ENERGY =    -26.372405105532 THE VIRIAL(-V/T)=   2.00044586
