 CO
GAUSSIAN              7 MOL ORBITALS     56 PRIMITIVES        2 NUCLEI
  C    1    (CENTRE  1)   0.00000000  0.00000000 -0.18825452  CHARGE =  6.0
  O    2    (CENTRE  2)   0.00000000  0.00000000 -2.28244902  CHARGE =  8.0
CENTRE ASSIGNMENTS    1  1  1  1  1  1  1  1  1  1  1  1  1  1  1  1  1  1  1  1
CENTRE ASSIGNMENTS    1  1  1  1  1  1  1  1  2  2  2  2  2  2  2  2  2  2  2  2
CENTRE ASSIGNMENTS    2  2  2  2  2  2  2  2  2  2  2  2  2  2  2  2
TYPE ASSIGNMENTS      1  1  1  1  1  1  1  1  1  2  2  2  3  3  3  4  4  4  1  2
TYPE ASSIGNMENTS      3  4  5  6  7  8  9 10  1  1  1  1  1  1  1  1  1  2  2  2
TYPE ASSIGNMENTS      3  3  3  4  4  4  1  2  3  4  5  6  7  8  9 10
EXPONENTS  0.3047525D+04 0.4573695D+03 0.1039487D+03 0.2921016D+02 0.9286663D+01
EXPONENTS  0.3163927D+01 0.7868272D+01 0.1881289D+01 0.5442493D+00 0.7868272D+01
EXPONENTS  0.1881289D+01 0.5442493D+00 0.7868272D+01 0.1881289D+01 0.5442493D+00
EXPONENTS  0.7868272D+01 0.1881289D+01 0.5442493D+00 0.1687145D+00 0.1687145D+00
EXPONENTS  0.1687145D+00 0.1687145D+00 0.8000000D+00 0.8000000D+00 0.8000000D+00
EXPONENTS  0.8000000D+00 0.8000000D+00 0.8000000D+00 0.5484672D+04 0.8252349D+03
EXPONENTS  0.1880470D+03 0.5296450D+02 0.1689757D+02 0.5799635D+01 0.1553962D+02
EXPONENTS  0.3599934D+01 0.1013762D+01 0.1553962D+02 0.3599934D+01 0.1013762D+01
EXPONENTS  0.1553962D+02 0.3599934D+01 0.1013762D+01 0.1553962D+02 0.3599934D+01
EXPONENTS  0.1013762D+01 0.2700058D+00 0.2700058D+00 0.2700058D+00 0.2700058D+00
EXPONENTS  0.8000000D+00 0.8000000D+00 0.8000000D+00 0.8000000D+00 0.8000000D+00
EXPONENTS  0.8000000D+00
MO    1     MO 0.0        OCC NO =    2.0000000  ORB. ENERGY =  -20.674868
 -0.32853640D-05 -0.60608550D-05 -0.97840992D-05 -0.12735990D-04 -0.10867643D-04
 -0.37523361D-05  0.15699178D-04  0.72357368D-05 -0.20289761D-04 -0.14128151D-15
 -0.10832570D-15 -0.54062117D-16 -0.36983352D-15 -0.28356488D-15 -0.14151875D-15
  0.74117616D-03  0.56828687D-03  0.28361497D-03 -0.19290163D-03 -0.31028403D-16
 -0.49475226D-16  0.97234959D-04  0.10339889D-03  0.10339889D-03 -0.10230527D-02
  0.26825299D-16  0.11645032D-14  0.22328614D-14  0.82727767D+00  0.15226325D+01
  0.24639068D+01  0.32388745D+01  0.27779639D+01  0.94983302D+00 -0.13050623D-01
 -0.58231625D-02  0.17195877D-01 -0.24546760D-16 -0.18911955D-16 -0.83033670D-17
  0.38806033D-15  0.29897956D-15  0.13126813D-15  0.55033939D-02  0.42400683D-02
  0.18616184D-02  0.14352565D-02  0.15892366D-15  0.14830032D-15  0.13950058D-03
 -0.47386916D-02 -0.47386916D-02 -0.35825088D-02  0.27432927D-16  0.13302218D-14
  0.24908789D-14
MO    2     MO 0.0        OCC NO =    2.0000000  ORB. ENERGY =  -11.352949
  0.53415042D+00  0.98540323D+00  0.15907463D+01  0.20706791D+01  0.17669142D+01
  0.61007302D+00 -0.10283994D-01 -0.47398835D-02  0.13291128D-01  0.49003116D-16
  0.37572481D-16  0.18751301D-16 -0.94942461D-16 -0.72795857D-16 -0.36330235D-16
 -0.57132358D-02 -0.43805468D-02 -0.21861999D-02 -0.29244037D-03 -0.12238604D-16
 -0.13040430D-16 -0.12805553D-03 -0.30447328D-02 -0.30447328D-02  0.31740692D-03
  0.15349703D-16  0.33481235D-15 -0.16113278D-15 -0.66733779D-03 -0.12282578D-02
 -0.19875529D-02 -0.26126940D-02 -0.22408924D-02 -0.76619918D-03 -0.31549253D-03
 -0.14077215D-03  0.41570205D-03  0.43113001D-16  0.33216243D-16  0.14583720D-16
 -0.24310242D-15 -0.18729731D-15 -0.82233608D-16  0.57792610D-03  0.44526090D-03
  0.19549352D-03 -0.10868556D-02  0.20385102D-16 -0.50179918D-16 -0.93555557D-03
  0.18887406D-03  0.18887406D-03 -0.73494467D-03  0.97014601D-17  0.28486214D-15
 -0.22990596D-15
MO    3     MO 0.0        OCC NO =    2.0000000  ORB. ENERGY =   -1.533269
 -0.62869606D-01 -0.11598215D+00 -0.18723115D+00 -0.24371932D+00 -0.20796614D+00
 -0.71805710D-01 -0.87385210D-01 -0.40275763D-01  0.11293744D+00  0.39321711D-15
  0.30149394D-15  0.15046660D-15 -0.97315063D-17 -0.74615018D-17 -0.37238124D-17
 -0.27956050D+00 -0.21434926D+00 -0.10697530D+00  0.79989235D-02 -0.39462440D-16
  0.30120461D-16  0.22497951D-02 -0.24966629D-01 -0.24966629D-01  0.42097658D-01
 -0.24211397D-15  0.52197362D-15  0.37549119D-15 -0.16743972D+00 -0.30817847D+00
 -0.49869093D+00 -0.65554319D+00 -0.56225558D+00 -0.19224473D+00 -0.27545537D+00
 -0.12290765D+00  0.36294793D+00  0.51754338D-15  0.39873928D-15  0.17506802D-15
 -0.83727179D-16 -0.64507278D-16 -0.28322169D-16  0.51995337D+00  0.40059604D+00
  0.17588324D+00  0.92060221D-01  0.31544767D-17  0.28472800D-16  0.10963693D-01
 -0.20472742D-02 -0.20472742D-02  0.23791095D-01  0.36622786D-15  0.30615105D-15
 -0.62650516D-16
MO    4     MO 0.0        OCC NO =    2.0000000  ORB. ENERGY =   -0.798206
 -0.68069602D-01 -0.12557512D+00 -0.20271719D+00 -0.26387754D+00 -0.22516719D+00
 -0.77744818D-01 -0.11239909D+00 -0.51804639D-01  0.14526562D+00 -0.10877674D-15
 -0.83403101D-16 -0.41623993D-16  0.50602141D-15  0.38798512D-15  0.19363177D-15
 -0.16392665D+00 -0.12568856D+00 -0.62727401D-01  0.31707458D-01  0.53126588D-16
  0.34220425D-16  0.38341129D-02 -0.15493671D-01 -0.15493671D-01  0.13791635D-01
  0.36907285D-15  0.22892186D-15 -0.51856057D-15  0.89225837D-01  0.16422317D+00
  0.26574409D+00  0.34932804D+00  0.29961663D+00  0.10244402D+00  0.15931845D+00
  0.71087580D-01 -0.20992258D+00  0.15903996D-14  0.12253171D-14  0.53798023D-15
  0.26685388D-14  0.20559653D-14  0.90267951D-15  0.15855755D+01  0.12216004D+01
  0.53634839D+00 -0.10747271D+00  0.48785859D-16  0.15333728D-15  0.69352630D-01
 -0.11036952D-01 -0.11036952D-01  0.28015483D-01 -0.14968441D-15  0.14981511D-15
  0.53505764D-15
MO    5     MO 0.0        OCC NO =    2.0000000  ORB. ENERGY =   -0.641766
  0.81225412D-16  0.14984503D-15  0.24189633D-15  0.31487715D-15  0.26868524D-15
  0.92770558D-16  0.11649376D-15  0.53691868D-16 -0.15055760D-15  0.32741558D+00
  0.25104150D+00  0.12528730D+00  0.17801951D+00  0.13649407D+00  0.68120107D-01
  0.40062379D-15  0.30717291D-15  0.15330081D-15 -0.29899030D-16  0.15275565D-01
  0.83054957D-02  0.17943786D-16 -0.13254238D-15  0.97716354D-16 -0.23181201D-16
  0.92770952D-16 -0.80268451D-01 -0.43642854D-01 -0.94913951D-16 -0.17469234D-15
 -0.28268518D-15 -0.37159758D-15 -0.31871708D-15 -0.10897478D-15 -0.17500729D-15
 -0.78087911D-16  0.23059465D-15  0.15217488D+01  0.11724254D+01  0.51475792D+00
  0.82739185D+00  0.63746082D+00  0.27987963D+00 -0.21243844D-14 -0.16367237D-14
 -0.71860985D-15  0.11679924D-15  0.89552237D-01  0.48690552D-01 -0.85247852D-16
  0.50233741D-16  0.17765334D-15  0.21492051D-16 -0.22400759D-16  0.70350394D-01
  0.38250296D-01
MO    6     MO 0.0        OCC NO =    2.0000000  ORB. ENERGY =   -0.641766
 -0.37174773D-16 -0.68580197D-16 -0.11070970D-15 -0.14411114D-15 -0.12297029D-15
 -0.42458687D-16 -0.49128138D-15 -0.22643114D-15  0.63493656D-15 -0.17801951D+00
 -0.13649407D+00 -0.68120107D-01  0.32741558D+00  0.25104150D+00  0.12528730D+00
  0.55723913D-15  0.42725562D-15  0.21323050D-15 -0.82273556D-16 -0.83054957D-02
  0.15275565D-01  0.12750665D-15 -0.19263120D-15 -0.33937734D-15 -0.23619462D-15
 -0.17998555D-15  0.43642854D-01 -0.80268451D-01 -0.11718401D-15 -0.21568113D-15
 -0.34901278D-15 -0.45878706D-15 -0.39349900D-15 -0.13454399D-15  0.12636997D-15
  0.56386035D-16 -0.16650872D-15 -0.82739185D+00 -0.63746082D+00 -0.27987963D+00
  0.15217488D+01  0.11724254D+01  0.51475792D+00 -0.22345080D-14 -0.17215680D-14
 -0.75586107D-15  0.52252768D-15 -0.48690552D-01  0.89552237D-01 -0.16408861D-15
 -0.26970258D-16 -0.32408684D-15 -0.51552862D-15  0.39249850D-15 -0.38250296D-01
  0.70350394D-01
MO    7     MO 0.0        OCC NO =    2.0000000  ORB. ENERGY =   -0.545205
 -0.76850396D-01 -0.14177398D+00 -0.22886715D+00 -0.29791703D+00 -0.25421314D+00
 -0.87773689D-01 -0.11212856D+00 -0.51679952D-01  0.14491598D+00  0.26742561D-15
  0.20504499D-15  0.10233182D-15 -0.12328973D-15 -0.94530745D-16 -0.47177467D-16
  0.57770738D+00  0.44294938D+00  0.22106278D+00  0.11552266D+00 -0.18427820D-16
  0.72604316D-17  0.24481135D-01  0.10731330D-01  0.10731330D-01 -0.41462577D-01
 -0.47498735D-16  0.41830477D-16 -0.83320389D-16  0.13470694D-01  0.24793268D-01
  0.40120188D-01  0.52739109D-01  0.45234028D-01  0.15466282D-01  0.25269670D-01
  0.11275278D-01 -0.33296046D-01  0.56003439D-15  0.43147631D-15  0.18944134D-15
 -0.21571243D-14 -0.16619480D-14 -0.72968470D-15 -0.76730318D+00 -0.59116573D+00
 -0.25955360D+00 -0.49670298D-02  0.58892919D-16 -0.15590936D-15 -0.39121010D-01
  0.47477213D-02  0.47477213D-02 -0.12893210D-01 -0.81572524D-16 -0.65930713D-16
 -0.26254193D-15
END DATA
 TOTAL ENERGY =   -112.737790218289 THE VIRIAL(-V/T)=   2.00212294
