 COBH3
GAUSSIAN             11 MOL ORBITALS     96 PRIMITIVES        6 NUCLEI
  C    1    (CENTRE  1)   0.00000000  0.00000000 -0.18825452  CHARGE =  6.0
  O    2    (CENTRE  2)   0.00000000  0.00000000 -2.28244902  CHARGE =  8.0
  B    3    (CENTRE  3)   0.00000000  0.00000000  2.88655667  CHARGE =  5.0
  H    4    (CENTRE  4)   2.21526925  0.00000000  3.39597014  CHARGE =  1.0
  H    5    (CENTRE  5)  -1.10764408 -1.91848776  3.39597014  CHARGE =  1.0
  H    6    (CENTRE  6)  -1.10764408  1.91848776  3.39597014  CHARGE =  1.0
CENTRE ASSIGNMENTS    1  1  1  1  1  1  1  1  1  1  1  1  1  1  1  1  1  1  1  1
CENTRE ASSIGNMENTS    1  1  1  1  1  1  1  1  2  2  2  2  2  2  2  2  2  2  2  2
CENTRE ASSIGNMENTS    2  2  2  2  2  2  2  2  2  2  2  2  2  2  2  2  3  3  3  3
CENTRE ASSIGNMENTS    3  3  3  3  3  3  3  3  3  3  3  3  3  3  3  3  3  3  3  3
CENTRE ASSIGNMENTS    3  3  3  3  4  4  4  4  5  5  5  5  6  6  6  6
TYPE ASSIGNMENTS      1  1  1  1  1  1  1  1  1  2  2  2  3  3  3  4  4  4  1  2
TYPE ASSIGNMENTS      3  4  5  6  7  8  9 10  1  1  1  1  1  1  1  1  1  2  2  2
TYPE ASSIGNMENTS      3  3  3  4  4  4  1  2  3  4  5  6  7  8  9 10  1  1  1  1
TYPE ASSIGNMENTS      1  1  1  1  1  2  2  2  3  3  3  4  4  4  1  2  3  4  5  6
TYPE ASSIGNMENTS      7  8  9 10  1  1  1  1  1  1  1  1  1  1  1  1
EXPONENTS  0.3047525D+04 0.4573695D+03 0.1039487D+03 0.2921016D+02 0.9286663D+01
EXPONENTS  0.3163927D+01 0.7868272D+01 0.1881289D+01 0.5442493D+00 0.7868272D+01
EXPONENTS  0.1881289D+01 0.5442493D+00 0.7868272D+01 0.1881289D+01 0.5442493D+00
EXPONENTS  0.7868272D+01 0.1881289D+01 0.5442493D+00 0.1687145D+00 0.1687145D+00
EXPONENTS  0.1687145D+00 0.1687145D+00 0.8000000D+00 0.8000000D+00 0.8000000D+00
EXPONENTS  0.8000000D+00 0.8000000D+00 0.8000000D+00 0.5484672D+04 0.8252349D+03
EXPONENTS  0.1880470D+03 0.5296450D+02 0.1689757D+02 0.5799635D+01 0.1553962D+02
EXPONENTS  0.3599934D+01 0.1013762D+01 0.1553962D+02 0.3599934D+01 0.1013762D+01
EXPONENTS  0.1553962D+02 0.3599934D+01 0.1013762D+01 0.1553962D+02 0.3599934D+01
EXPONENTS  0.1013762D+01 0.2700058D+00 0.2700058D+00 0.2700058D+00 0.2700058D+00
EXPONENTS  0.8000000D+00 0.8000000D+00 0.8000000D+00 0.8000000D+00 0.8000000D+00
EXPONENTS  0.8000000D+00 0.2068882D+04 0.3106496D+03 0.7068303D+02 0.1986108D+02
EXPONENTS  0.6299305D+01 0.2127027D+01 0.4727971D+01 0.1190338D+01 0.3594117D+00
EXPONENTS  0.4727971D+01 0.1190338D+01 0.3594117D+00 0.4727971D+01 0.1190338D+01
EXPONENTS  0.3594117D+00 0.4727971D+01 0.1190338D+01 0.3594117D+00 0.1267512D+00
EXPONENTS  0.1267512D+00 0.1267512D+00 0.1267512D+00 0.6000000D+00 0.6000000D+00
EXPONENTS  0.6000000D+00 0.6000000D+00 0.6000000D+00 0.6000000D+00 0.1873114D+02
EXPONENTS  0.2825394D+01 0.6401217D+00 0.1612778D+00 0.1873114D+02 0.2825394D+01
EXPONENTS  0.6401217D+00 0.1612778D+00 0.1873114D+02 0.2825394D+01 0.6401217D+00
EXPONENTS  0.1612778D+00
MO    1     MO 0.0        OCC NO =    2.0000000  ORB. ENERGY =  -20.732720
 -0.21778489D-04 -0.40177059D-04 -0.64858231D-04 -0.84426145D-04 -0.72040983D-04
 -0.24874020D-04 -0.84237292D-06 -0.38824891D-06  0.10886905D-05 -0.23427374D-10
 -0.17962624D-10 -0.89646084D-11  0.76545153D-17  0.58689968D-17  0.29290407D-17
  0.81316149D-03  0.62348065D-03  0.31116054D-03 -0.18452311D-03 -0.75133351D-11
 -0.12423503D-15  0.12905755D-03  0.69177082D-04  0.69177044D-04 -0.14582114D-02
 -0.56901788D-16 -0.10375979D-10 -0.64947725D-15  0.82728849D+00  0.15226525D+01
  0.24639391D+01  0.32389169D+01  0.27780002D+01  0.94984545D+00 -0.13061810D-01
 -0.58281541D-02  0.17210617D-01  0.11953750D-10  0.92097198D-11  0.40435630D-11
  0.16391185D-15  0.12628524D-15  0.55446024D-16  0.63144674D-02  0.48649567D-02
  0.21359780D-02  0.14969706D-02  0.59854029D-11  0.23939865D-15  0.16442975D-03
 -0.47398122D-02 -0.47398121D-02 -0.34553942D-02 -0.60902391D-15  0.27673128D-10
  0.28398765D-15  0.48702534D-05  0.89709259D-05  0.14423405D-04  0.18613820D-04
  0.15799150D-04  0.54453578D-05  0.58968898D-04  0.21022467D-04 -0.74044943D-04
 -0.14758651D-09 -0.10861771D-09 -0.58711667D-10  0.16146321D-15  0.11883040D-15
  0.64231983D-16 -0.11407052D-03 -0.83951294D-04 -0.45378608D-04 -0.61798152D-04
  0.21123308D-10  0.61979485D-16  0.64385087D-05  0.27041762D-04  0.27041924D-04
  0.25940946D-03 -0.11335605D-14 -0.65332916D-10 -0.35592075D-16  0.28193095D-05
  0.47820825D-05  0.54442319D-05  0.12261055D-04  0.28192673D-05  0.47820109D-05
  0.54441504D-05  0.12261028D-04  0.28192673D-05  0.47820109D-05  0.54441504D-05
  0.12261028D-04
MO    2     MO 0.0        OCC NO =    2.0000000  ORB. ENERGY =  -11.439965
  0.53423437D+00  0.98555810D+00  0.15909964D+01  0.20710045D+01  0.17671919D+01
  0.61016890D+00 -0.10784555D-01 -0.49705917D-02  0.13938058D-01 -0.62021729D-09
 -0.47554328D-09 -0.23732942D-09 -0.19492713D-15 -0.14945776D-15 -0.74589898D-16
 -0.39231813D-02 -0.30080466D-02 -0.15012261D-02 -0.96740151D-03  0.12114076D-09
 -0.24317102D-16 -0.11476045D-02 -0.26352844D-02 -0.26352845D-02  0.10851811D-02
 -0.35893617D-15  0.58795746D-09  0.20969184D-14 -0.48809374D-03 -0.89835303D-03
 -0.14537048D-02 -0.19109356D-02 -0.16389984D-02 -0.56040138D-03 -0.78231300D-03
 -0.34906654D-03  0.10307982D-02  0.40219518D-09  0.30986971D-09  0.13604949D-09
 -0.64167282D-15 -0.49437431D-15 -0.21705695D-15  0.42822807D-03  0.32992664D-03
  0.14485557D-03 -0.26376402D-02 -0.45547292D-10  0.31818747D-16 -0.11608232D-02
  0.81241831D-03  0.81241826D-03 -0.27482591D-04 -0.59607013D-15  0.25277527D-09
  0.27446779D-14 -0.27379800D-04 -0.50433138D-04 -0.81086121D-04 -0.10464397D-03
 -0.88820342D-04 -0.30612947D-04  0.10115898D-04  0.36063272D-05 -0.12702139D-04
  0.13171608D-08  0.96937711D-09  0.52398220D-09  0.46926538D-17  0.34536036D-17
  0.18667934D-17 -0.14853515D-03 -0.10931587D-03 -0.59089045D-04  0.12294472D-02
 -0.10534718D-09  0.25527649D-16 -0.31355022D-03 -0.10173948D-03 -0.10174086D-03
 -0.52857187D-03 -0.25113001D-15  0.52213849D-09  0.10001601D-15 -0.31173004D-04
 -0.52875314D-04 -0.60196676D-04 -0.16014437D-03 -0.31173040D-04 -0.52875377D-04
 -0.60196747D-04 -0.16014337D-03 -0.31173040D-04 -0.52875377D-04 -0.60196747D-04
 -0.16014337D-03
MO    3     MO 0.0        OCC NO =    2.0000000  ORB. ENERGY =   -7.559362
 -0.13988585D-03 -0.25806207D-03 -0.41659220D-03 -0.54227926D-03 -0.46272788D-03
 -0.15976882D-03 -0.24753733D-03 -0.11408973D-03  0.31991951D-03 -0.56361919D-10
 -0.43214744D-10 -0.21567186D-10 -0.23553889D-15 -0.18059628D-15 -0.90130201D-16
 -0.19971068D-03 -0.15312548D-03 -0.76420346D-04  0.11088152D-02 -0.47857352D-09
 -0.41482958D-16 -0.53860080D-03 -0.66647456D-04 -0.66646809D-04 -0.83524689D-03
  0.46986767D-15  0.17122991D-09 -0.17440721D-15  0.21987655D-03  0.40469023D-03
  0.65486519D-03  0.86083862D-03  0.73833628D-03  0.25244971D-03 -0.74513145D-03
 -0.33247620D-03  0.98180668D-03 -0.34199554D-09 -0.26348913D-09 -0.11568592D-09
 -0.56557464D-16 -0.43574477D-16 -0.19131542D-16  0.50926753D-03  0.39236318D-03
  0.17226857D-03 -0.19069688D-02  0.29774751D-09  0.16022846D-15 -0.46852632D-03
  0.75461877D-03  0.75461870D-03  0.75707414D-03 -0.51992968D-15  0.49869054D-09
 -0.81154945D-15  0.40648162D+00  0.74873239D+00  0.12038078D+01  0.15535486D+01
  0.13186304D+01  0.45448105D+00 -0.77730547D-02 -0.27711012D-02  0.97603212D-02
 -0.69596003D-09 -0.51219846D-09 -0.27686116D-09 -0.10268363D-16 -0.75571001D-17
 -0.40848767D-17 -0.16013587D-02 -0.11785353D-02 -0.63703951D-03 -0.23261242D-02
  0.14845482D-08 -0.11170258D-16  0.89743300D-04  0.84387409D-05  0.84266842D-05
 -0.25533544D-06 -0.76565494D-15  0.49408918D-08  0.21983447D-15 -0.26356708D-04
 -0.44705965D-04 -0.50896161D-04  0.58369810D-03 -0.26357567D-04 -0.44707421D-04
 -0.50897819D-04  0.58369862D-03 -0.26357567D-04 -0.44707421D-04 -0.50897819D-04
  0.58369862D-03
MO    4     MO 0.0        OCC NO =    2.0000000  ORB. ENERGY =   -1.590642
 -0.64905420D-01 -0.11973783D+00 -0.19329398D+00 -0.25161133D+00 -0.21470040D+00
 -0.74130889D-01 -0.88643917D-01 -0.40855900D-01  0.11456421D+00  0.18253261D-08
  0.13995443D-08  0.69847067D-09  0.40090225D-15  0.30738642D-15  0.15340737D-15
 -0.28524333D+00 -0.21870650D+00 -0.10914987D+00  0.10212819D-01  0.47670923D-09
 -0.98204548D-16  0.90424664D-02 -0.26857666D-01 -0.26857669D-01  0.38043687D-01
  0.45387779D-15  0.12352095D-08  0.11870235D-14 -0.16739658D+00 -0.30809906D+00
 -0.49856244D+00 -0.65537428D+00 -0.56211071D+00 -0.19219520D+00 -0.27034723D+00
 -0.12062841D+00  0.35621731D+00  0.73781119D-08  0.56844375D-08  0.24957742D-08
  0.20864165D-14  0.16074715D-14  0.70576656D-15  0.52426696D+00  0.40391943D+00
  0.17734239D+00  0.10192718D+00  0.79171766D-09  0.13990778D-15  0.14041095D-01
 -0.61745896D-02 -0.61745909D-02  0.21966849D-01 -0.49156394D-17  0.43165454D-09
  0.43550135D-15 -0.12836111D-02 -0.23643903D-02 -0.38014537D-02 -0.49058854D-02
 -0.41640470D-02 -0.14351864D-02 -0.85115187D-03 -0.30343643D-03  0.10687582D-02
 -0.27465959D-08 -0.20213836D-08 -0.10926285D-08 -0.12237958D-15 -0.90066425D-16
 -0.48684050D-16 -0.26457231D-02 -0.19471453D-02 -0.10525001D-02 -0.58828562D-02
  0.29189895D-09  0.12248666D-16  0.18145309D-02 -0.53586426D-03 -0.53586086D-03
  0.19696521D-02  0.10737244D-16 -0.18491529D-08  0.29946951D-15  0.25215405D-03
  0.42770099D-03  0.48692246D-03  0.46544092D-03  0.25215299D-03  0.42769920D-03
  0.48692043D-03  0.46543915D-03  0.25215299D-03  0.42769920D-03  0.48692043D-03
  0.46543915D-03
MO    5     MO 0.0        OCC NO =    2.0000000  ORB. ENERGY =   -0.882842
 -0.83462952D-01 -0.15397285D+00 -0.24855992D+00 -0.32355116D+00 -0.27608679D+00
 -0.95326135D-01 -0.13758245D+00 -0.63411628D-01  0.17781282D+00  0.89671171D-07
  0.68754167D-07  0.34313148D-07 -0.93442584D-15 -0.71645846D-15 -0.35756299D-15
  0.11391792D+00  0.87345034D-01  0.43591294D-01  0.53137643D-01  0.73138979D-08
 -0.50712699D-17  0.13117336D-01 -0.12173864D-01 -0.12173867D-01  0.13131761D-01
  0.26272547D-15  0.97459003D-08 -0.15538153D-17  0.76583623D-01  0.14095475D+00
  0.22809139D+00  0.29983252D+00  0.25716461D+00  0.87928947D-01  0.14053642D+00
  0.62707076D-01 -0.18517484D+00  0.12193189D-06  0.93941950D-07  0.41245576D-07
 -0.98679027D-15 -0.76026871D-15 -0.33379891D-15  0.97911759D+00  0.75435732D+00
  0.33120350D+00 -0.78105300D-01  0.24355351D-08  0.11351146D-15  0.42562181D-01
 -0.86065905D-02 -0.86065920D-02  0.14131235D-01 -0.17352354D-15  0.77999155D-08
 -0.44779789D-15 -0.38923323D-01 -0.71696115D-01 -0.11527262D+00 -0.14876263D+00
 -0.12626765D+00 -0.43519589D-01 -0.41638969D-01 -0.14844331D-01  0.52284427D-01
  0.24183306D-06  0.17797936D-06  0.96204062D-07 -0.24275410D-15 -0.17865721D-15
 -0.96570463D-16 -0.60560298D-01 -0.44569932D-01 -0.24091606D-01  0.62527617D-02
 -0.18617764D-08 -0.78087825D-16  0.79704485D-03  0.39331967D-02  0.39331138D-02
  0.14095841D-01 -0.30843444D-15  0.40136324D-08  0.11737912D-15  0.10957208D-01
  0.18585499D-01  0.21158934D-01  0.59782482D-02  0.10957112D-01  0.18585335D-01
  0.21158747D-01  0.59782203D-02  0.10957112D-01  0.18585335D-01  0.21158747D-01
  0.59782203D-02
MO    6     MO 0.0        OCC NO =    2.0000000  ORB. ENERGY =   -0.795203
  0.25847224D-02  0.47683081D-02  0.76975278D-02  0.10019894D-01  0.85499937D-02
  0.29521074D-02  0.20769196D-02  0.95725033D-03 -0.26842298D-02 -0.17762232D-06
 -0.13618953D-06 -0.67968119D-07  0.15212806D-14  0.11664215D-14  0.58212607D-15
 -0.46833085D+00 -0.35908639D+00 -0.17920928D+00 -0.22900492D-01 -0.11550267D-07
  0.23715409D-16 -0.51591084D-02 -0.12859322D-01 -0.12859319D-01  0.72798435D-02
 -0.19607510D-15 -0.16296390D-08 -0.45267196D-15  0.47784419D-01  0.87948840D-01
  0.14231782D+00  0.18708076D+00  0.16045808D+00  0.54863344D-01  0.89677069D-01
  0.40013734D-01 -0.11816109D+00 -0.41289211D-06 -0.31811111D-06 -0.13966791D-06
  0.13091137D-13  0.10086015D-13  0.44283039D-14  0.13727203D+01  0.10576070D+01
  0.46434644D+00 -0.62937067D-01 -0.19000860D-07  0.76822666D-15  0.60000595D-01
 -0.12995044D-01 -0.12995044D-01  0.26751103D-01  0.25343866D-15 -0.22285837D-07
  0.32558794D-15  0.46004738D-01  0.84739964D-01  0.13624445D+00  0.17582738D+00
  0.14923982D+00  0.51437213D-01  0.49165093D-01  0.17527401D-01 -0.61734688D-01
 -0.41364519D-06 -0.30442614D-06 -0.16455297D-06  0.14568575D-15  0.10721882D-15
  0.57955520D-16  0.44836907D-01  0.32998152D-01  0.17836654D-01 -0.20938702D-01
  0.14319262D-08  0.16934662D-15  0.20054753D-02 -0.70437710D-02 -0.70436376D-02
 -0.88230815D-02  0.11359972D-15 -0.17773184D-07 -0.60603725D-16 -0.14970176D-01
 -0.25392252D-01 -0.28908181D-01 -0.78881694D-02 -0.14970024D-01 -0.25391994D-01
 -0.28907888D-01 -0.78881162D-02 -0.14970024D-01 -0.25391994D-01 -0.28907888D-01
 -0.78881162D-02
MO    7     MO 0.0        OCC NO =    2.0000000  ORB. ENERGY =   -0.701993
  0.31087132D-07  0.57349688D-07  0.92580178D-07  0.12051188D-06  0.10283301D-06
  0.35505767D-07  0.56493580D-07  0.26037839D-07 -0.73012820D-07  0.40075894D+00
  0.30727654D+00  0.15335253D+00 -0.70894137D-07 -0.54357128D-07 -0.27128016D-07
 -0.32865773D-06 -0.25199390D-06 -0.12576262D-06 -0.25207075D-07  0.18190904D-01
 -0.32179647D-08 -0.72936061D-08  0.16219359D-03 -0.16220546D-03  0.64558099D-08
  0.57384432D-10 -0.84028420D-01  0.14864606D-07  0.54345662D-08  0.10002503D-07
  0.16185938D-07  0.21276868D-07  0.18249046D-07  0.62396588D-08  0.11082042D-07
  0.49447856D-08 -0.14602018D-07  0.17015751D+01  0.13109719D+01  0.57558726D+00
 -0.30100819D-06 -0.23191058D-06 -0.10182124D-06  0.52495324D-06  0.40444817D-06
  0.17757453D-06 -0.15970090D-07  0.96379503D-01 -0.17049509D-07  0.21290033D-07
 -0.37922814D-04  0.37915116D-04  0.82193183D-08 -0.13417061D-10  0.83835694D-01
 -0.14830510D-07  0.24606064D-08  0.45323962D-08  0.72871616D-08  0.94042918D-08
  0.79822315D-08  0.27511674D-08 -0.13756121D-07 -0.49040700D-08  0.17273024D-07
  0.33879291D-01  0.24933789D-01  0.13477584D-01 -0.59931906D-08 -0.44107461D-08
 -0.23841624D-08  0.10678368D-06  0.78588473D-07  0.42479816D-07 -0.22625648D-07
  0.72187617D-03 -0.12769999D-09  0.36387720D-08  0.22177153D-02 -0.22177156D-02
 -0.20142312D-07  0.78462098D-09 -0.51395048D-02  0.90917891D-09  0.52438341D-02
  0.88945351D-02  0.10126114D-01  0.40480536D-02 -0.26219148D-02 -0.44472637D-02
 -0.50630526D-02 -0.20240290D-02 -0.26219164D-02 -0.44472665D-02 -0.50630557D-02
 -0.20240303D-02
MO    8     MO 0.0        OCC NO =    2.0000000  ORB. ENERGY =   -0.701993
  0.55181570D-14  0.10179922D-13  0.16433551D-13  0.21391600D-13  0.18253491D-13
  0.63024919D-14  0.10338430D-13  0.47649729D-14 -0.13361481D-13  0.70894141D-07
  0.54357131D-07  0.27128018D-07  0.40075892D+00  0.30727652D+00  0.15335252D+00
 -0.55138291D-13 -0.42276544D-13 -0.21098958D-13 -0.42958196D-14  0.32179659D-08
  0.18190900D-01 -0.62883504D-15  0.28692231D-10 -0.28693836D-10  0.13139619D-14
 -0.32438839D-03 -0.14864603D-07 -0.84028432D-01  0.66047797D-15  0.12156320D-14
  0.19671221D-14  0.25858371D-14  0.22178574D-14  0.75832312D-15  0.15458086D-14
  0.68973676D-15 -0.20368019D-14  0.30100814D-06  0.23191054D-06  0.10182122D-06
  0.17015754D+01  0.13109721D+01  0.57558735D+00  0.85529137D-13  0.65895589D-13
  0.28931713D-13 -0.17028083D-14  0.17049506D-07  0.96379518D-01  0.35999260D-14
 -0.67085319D-11  0.67074612D-11  0.14843698D-14  0.75844756D-04  0.14830510D-07
  0.83835695D-01  0.12550694D-15  0.23118170D-15  0.37169267D-15  0.47968009D-15
  0.40714576D-15  0.14032744D-15 -0.27598414D-14 -0.98388601D-15  0.34654250D-14
  0.59932355D-08  0.44107792D-08  0.23841803D-08  0.33879030D-01  0.24933597D-01
  0.13477481D-01  0.18485680D-13  0.13604714D-13  0.73538231D-14 -0.42990448D-14
  0.12769956D-09  0.72187671D-03  0.82953717D-15  0.39231335D-09 -0.39231323D-09
 -0.33603979D-14 -0.44353993D-02 -0.90917713D-09 -0.51395169D-02  0.92763264D-09
  0.15734405D-08  0.17913064D-08  0.71609956D-09 -0.45412532D-02 -0.77028250D-02
 -0.87693940D-02 -0.35057002D-02  0.45412523D-02  0.77028234D-02  0.87693922D-02
  0.35056995D-02
MO    9     MO 0.0        OCC NO =    2.0000000  ORB. ENERGY =   -0.554880
 -0.47943203D-01 -0.88445849D-01 -0.14277902D+00 -0.18585587D+00 -0.15859115D+00
 -0.54757712D-01 -0.82060561D-01 -0.37821638D-01  0.10605582D+00  0.47729810D-07
  0.36596191D-07  0.18264064D-07  0.79522172D-16  0.60972557D-16  0.30429579D-16
  0.36820378D+00  0.28231531D+00  0.14089512D+00  0.65000148D-01 -0.12245369D-07
  0.13126709D-15  0.99357985D-02  0.54793382D-02  0.54793688D-02 -0.96248796D-02
  0.24321846D-15 -0.25644291D-06  0.25098270D-15  0.89195666D-02  0.16416764D-01
  0.26565423D-01  0.34920992D-01  0.29951532D-01  0.10240937D-01  0.13962303D-01
  0.62299523D-02 -0.18397133D-01  0.26514307D-05  0.20427844D-05  0.89689239D-06
  0.11734738D-14  0.90409828D-15  0.39694784D-15 -0.40066581D+00 -0.30869141D+00
 -0.13553216D+00 -0.10344382D-01  0.18331435D-06 -0.13160055D-15 -0.21294540D-01
  0.47387858D-02  0.47387848D-02 -0.76330567D-02 -0.72868279D-15  0.97048369D-07
 -0.29391245D-15  0.44102219D-01  0.81235556D-01  0.13061008D+00  0.16855607D+00
  0.14306803D+00  0.49310035D-01  0.48294603D-01  0.17217071D-01 -0.60641647D-01
 -0.20934713D-05 -0.15407103D-05 -0.83280773D-06 -0.40654399D-15 -0.29919995D-15
 -0.16172803D-15 -0.17640513D+00 -0.12982705D+00 -0.70176056D-01 -0.25979653D-01
 -0.60769134D-07 -0.42903801D-15 -0.52996807D-02 -0.23335155D-01 -0.23334715D-01
  0.21589468D-01  0.31192419D-15 -0.12358138D-06 -0.37757907D-16 -0.31699866D-01
 -0.53768972D-01 -0.61214074D-01 -0.27268689D-01 -0.31699205D-01 -0.53767852D-01
 -0.61212799D-01 -0.27268197D-01 -0.31699205D-01 -0.53767852D-01 -0.61212799D-01
 -0.27268197D-01
MO   10     MO 0.0        OCC NO =    2.0000000  ORB. ENERGY =   -0.467441
 -0.25898025D-06 -0.47776800D-06 -0.77126568D-06 -0.10039588D-05 -0.85667983D-06
 -0.29579096D-06 -0.43364573D-06 -0.19986692D-06  0.56044771D-06  0.37386600D-01
  0.28665674D-01  0.14306180D-01 -0.10143154D-10 -0.77771271D-11 -0.38813315D-11
  0.18171965D-05  0.13933110D-05  0.69535985D-06  0.41619753D-06  0.61446694D-02
 -0.16670118D-11  0.12000586D-06  0.23166759D-02 -0.23166423D-02 -0.32767324D-07
  0.12565914D-11  0.40166671D-01 -0.10897469D-10  0.49513901D-07  0.91132010D-07
  0.14746879D-06  0.19385186D-06  0.16626561D-06  0.56849036D-07  0.11632084D-06
  0.51902131D-07 -0.15326769D-06 -0.39035160D+00 -0.30074487D+00 -0.13204319D+00
  0.10591149D-09  0.81599095D-10  0.35826398D-10 -0.17065752D-05 -0.13148242D-05
 -0.57727863D-06  0.25751417D-08 -0.29989140D-01  0.81363227D-11 -0.85534719D-07
 -0.22799044D-04  0.22804618D-04 -0.55348918D-07 -0.12349915D-13 -0.12166918D-01
  0.33011461D-11  0.21500956D-06  0.39604404D-06  0.63675743D-06  0.82175379D-06
  0.69749314D-06  0.24039899D-06  0.60530171D-07  0.21579062D-07 -0.76005372D-07
  0.27989553D+00  0.20599180D+00  0.11134576D+00 -0.75938278D-10 -0.55887504D-10
 -0.30209149D-10 -0.77336871D-06 -0.56916812D-06 -0.30765526D-06 -0.43579847D-06
  0.16484004D-01 -0.44723184D-11 -0.16858558D-07  0.21540419D-01 -0.21540788D-01
  0.75180308D-07  0.11687924D-10  0.35821256D-02 -0.97219246D-12  0.55860469D-01
  0.94749928D-01  0.10786944D+00  0.53276101D-01 -0.27930583D-01 -0.47375554D-01
 -0.53935394D-01 -0.26638438D-01 -0.27930583D-01 -0.47375554D-01 -0.53935394D-01
 -0.26638438D-01
MO   11     MO 0.0        OCC NO =    2.0000000  ORB. ENERGY =   -0.467440
  0.12989575D-15  0.23963230D-15  0.38684083D-15  0.50355182D-15  0.42968168D-15
  0.14835876D-15 -0.70075991D-15 -0.32297960D-15  0.90566852D-15  0.10142290D-10
  0.77764643D-11  0.38810007D-11  0.37387288D-01  0.28666201D-01  0.14306443D-01
  0.15653930D-14  0.12002441D-14  0.59900592D-15 -0.46511336D-14  0.16676000D-11
  0.61447406D-02 -0.15623498D-14  0.62926247D-12 -0.62752263D-12  0.54671687D-16
 -0.46333493D-02  0.10897383D-10  0.40166662D-01 -0.12432522D-15 -0.22882478D-15
 -0.37028169D-15 -0.48674564D-15 -0.41747891D-15 -0.14274313D-15  0.67678942D-15
  0.30198212D-15 -0.89175725D-15 -0.10590704D-09 -0.81595667D-10 -0.35824893D-10
 -0.39035122D+00 -0.30074457D+00 -0.13204307D+00  0.67204513D-16  0.51777455D-16
  0.22733091D-16  0.10178573D-14 -0.81368054D-11 -0.29989161D-01  0.99087309D-15
 -0.69520091D-14  0.52561508D-14  0.21961995D-15  0.45600561D-04 -0.33013134D-11
 -0.12166860D-01 -0.70232464D-15 -0.12936703D-14 -0.20799560D-14 -0.26842432D-14
 -0.22783481D-14 -0.78525874D-15  0.28321093D-14  0.10096496D-14 -0.35561690D-14
  0.75939323D-10  0.55888273D-10  0.30209564D-10  0.27989463D+00  0.20599113D+00
  0.11134541D+00 -0.10119517D-14 -0.74475554D-15 -0.40256639D-15  0.97249041D-14
  0.44710668D-11  0.16484100D-01 -0.64448225D-15  0.58425578D-11 -0.58451810D-11
 -0.56315304D-15 -0.43081198D-01  0.97285530D-12  0.35820028D-02  0.15155655D-10
  0.25706859D-10  0.29266350D-10  0.14452650D-10 -0.48376727D-01 -0.82056085D-01
 -0.93417953D-01 -0.46138851D-01  0.48376727D-01  0.82056085D-01  0.93417953D-01
  0.46138851D-01
END DATA
 TOTAL ENERGY =   -139.142412111156 THE VIRIAL(-V/T)=   2.00191601
