hf/6-31G* opted                                                         
FOpt      UHF                                                         6-31G(d)            
Number of atoms                            I                4
Info1-9                                    I   N=           9
          12          11           0           0           0         110
           2           1           2
Charge                                     I                0
Multiplicity                               I                2
Number of electrons                        I                9
Number of alpha electrons                  I                5
Number of beta electrons                   I                4
Number of basis functions                  I               21
Number of independent functions            I               21
Number of point charges in /Mol/           I                0
Number of translation vectors              I                0
Atomic numbers                             I   N=           4
           6           1           1           1
Nuclear charges                            R   N=           4
  6.00000000E+00  1.00000000E+00  1.00000000E+00  1.00000000E+00
Current cartesian coordinates              R   N=          12
  2.46716228E-17 -9.86864911E-17  9.31294124E-32  2.68360635E-09  2.02685872E+00
  9.31294124E-32 -1.75531114E+00 -1.01342936E+00 -2.14956518E-16  1.75531114E+00
 -1.01342936E+00  2.14956518E-16
Force Field                                I                0
Int Atom Types                             I   N=           4
           0           0           0           0
MM charges                                 R   N=           4
  0.00000000E+00  0.00000000E+00  0.00000000E+00  0.00000000E+00
Integer atomic weights                     I   N=           4
          12           1           1           1
Real atomic weights                        R   N=           4
  1.20000000E+01  1.00782504E+00  1.00782504E+00  1.00782504E+00
Atom fragment info                         I   N=           4
           0           0           0           0
Atom residue num                           I   N=           4
           0           0           0           0
Nuclear spins                              I   N=           4
           0           1           1           1
Nuclear ZEff                               R   N=           4
 -3.60000000E+00 -1.00000000E+00 -1.00000000E+00 -1.00000000E+00
Nuclear ZNuc                               R   N=           4
  6.00000000E+00  1.00000000E+00  1.00000000E+00  1.00000000E+00
Nuclear QMom                               R   N=           4
  0.00000000E+00  0.00000000E+00  0.00000000E+00  0.00000000E+00
Nuclear GFac                               R   N=           4
  0.00000000E+00  2.79284600E+00  2.79284600E+00  2.79284600E+00
MicOpt                                     I   N=           4
          -1          -1          -1          -1
Number of contracted shells                I               10
Number of primitive shells                 I               23
Pure/Cartesian d shells                    I                1
Pure/Cartesian f shells                    I                0
Highest angular momentum                   I                2
Largest degree of contraction              I                6
Shell types                                I   N=          10
           0          -1          -1           2           0           0
           0           0           0           0
Number of primitives per shell             I   N=          10
           6           3           1           1           3           1
           3           1           3           1
Shell to atom map                          I   N=          10
           1           1           1           1           2           2
           3           3           4           4
Primitive exponents                        R   N=          23
  3.04752488E+03  4.57369518E+02  1.03948685E+02  2.92101553E+01  9.28666296E+00
  3.16392696E+00  7.86827235E+00  1.88128854E+00  5.44249258E-01  1.68714478E-01
  8.00000000E-01  1.87311370E+01  2.82539436E+00  6.40121692E-01  1.61277759E-01
  1.87311370E+01  2.82539436E+00  6.40121692E-01  1.61277759E-01  1.87311370E+01
  2.82539436E+00  6.40121692E-01  1.61277759E-01
Contraction coefficients                   R   N=          23
  1.83473713E-03  1.40373228E-02  6.88426223E-02  2.32184443E-01  4.67941348E-01
  3.62311985E-01 -1.19332420E-01 -1.60854152E-01  1.14345644E+00  1.00000000E+00
  1.00000000E+00  3.34946043E-02  2.34726953E-01  8.13757326E-01  1.00000000E+00
  3.34946043E-02  2.34726953E-01  8.13757326E-01  1.00000000E+00  3.34946043E-02
  2.34726953E-01  8.13757326E-01  1.00000000E+00
P(S=P) Contraction coefficients            R   N=          23
  0.00000000E+00  0.00000000E+00  0.00000000E+00  0.00000000E+00  0.00000000E+00
  0.00000000E+00  6.89990666E-02  3.16423961E-01  7.44308291E-01  1.00000000E+00
  0.00000000E+00  0.00000000E+00  0.00000000E+00  0.00000000E+00  0.00000000E+00
  0.00000000E+00  0.00000000E+00  0.00000000E+00  0.00000000E+00  0.00000000E+00
  0.00000000E+00  0.00000000E+00  0.00000000E+00
Coordinates of each shell                  R   N=          30
  0.00000000E+00  0.00000000E+00  0.00000000E+00  0.00000000E+00  0.00000000E+00
  0.00000000E+00  0.00000000E+00  0.00000000E+00  0.00000000E+00  0.00000000E+00
  0.00000000E+00  0.00000000E+00  0.00000000E+00  2.02685872E+00  0.00000000E+00
  0.00000000E+00  2.02685872E+00  0.00000000E+00 -1.75531114E+00 -1.01342936E+00
  2.46519033E-32 -1.75531114E+00 -1.01342936E+00  2.46519033E-32  1.75531114E+00
 -1.01342936E+00  2.46519033E-32  1.75531114E+00 -1.01342936E+00  2.46519033E-32
Constraint Structure                       R   N=          12
  0.00000000E+00  0.00000000E+00  0.00000000E+00  0.00000000E+00  2.04006896E+00
  0.00000000E+00 -1.76675155E+00 -1.02003448E+00  0.00000000E+00  1.76675155E+00
 -1.02003448E+00  0.00000000E+00
Num ILSW                                   I              100
ILSW                                       I   N=         100
           1           1           0           0           2           0
           0           0           0           0           0          -1
           0           0           0           0           2           0
           0           0           1           0           1           0
           1           0           0           0           0           0
           0           0      100000           0          -1           0
           0           0           0           0           0           0
           0           0           0           1           0           0
           0           0           1           0           0           0
           0           0           4          41           0           0
           0           0           0           0           0           0
           0           0           0           0           0           0
           0           0           0           0           0           0
           0           0           0           0           0           0
           0           0           0           0           0           0
           0           0           0           0           0           0
           0           0           0           0
Num RLSW                                   I               41
RLSW                                       R   N=          41
  1.00000000E+00  1.00000000E+00  1.00000000E+00  1.00000000E+00  1.00000000E+00
  0.00000000E+00  0.00000000E+00  1.00000000E+00  0.00000000E+00  0.00000000E+00
  0.00000000E+00  0.00000000E+00  1.00000000E+00  0.00000000E+00  0.00000000E+00
  0.00000000E+00  0.00000000E+00  1.00000000E+00  0.00000000E+00  0.00000000E+00
  0.00000000E+00  0.00000000E+00  1.00000000E+00  0.00000000E+00  0.00000000E+00
  0.00000000E+00  0.00000000E+00  1.00000000E+00  0.00000000E+00  0.00000000E+00
  0.00000000E+00  0.00000000E+00  1.00000000E+00  0.00000000E+00  0.00000000E+00
  0.00000000E+00  0.00000000E+00  0.00000000E+00  1.00000000E+00  1.00000000E+00
  0.00000000E+00
MxBond                                     I                3
NBond                                      I   N=           4
           3           1           1           1
IBond                                      I   N=          12
           2           3           4           1           0           0
           1           0           0           1           0           0
RBond                                      R   N=          12
  1.00000000E+00  1.00000000E+00  1.00000000E+00  1.00000000E+00  0.00000000E+00
  0.00000000E+00  1.00000000E+00  0.00000000E+00  0.00000000E+00  1.00000000E+00
  0.00000000E+00  0.00000000E+00
Virial Ratio                               R      2.000121085498523E+00
SCF Energy                                 R     -3.955899198243530E+01
Total Energy                               R     -3.955899198243530E+01
S**2                                       R      7.614851757595123E-01
S**2 after annihilation                    R      7.500744652801780E-01
RMS Force                                  R      1.323828317163104E-08
RMS Density                                R      2.129511665574352E-09
External E-field                           R   N=          35
  0.00000000E+00  0.00000000E+00  0.00000000E+00  0.00000000E+00  0.00000000E+00
  0.00000000E+00  0.00000000E+00  0.00000000E+00  0.00000000E+00  0.00000000E+00
  0.00000000E+00  0.00000000E+00  0.00000000E+00  0.00000000E+00  0.00000000E+00
  0.00000000E+00  0.00000000E+00  0.00000000E+00  0.00000000E+00  0.00000000E+00
  0.00000000E+00  0.00000000E+00  0.00000000E+00  0.00000000E+00  0.00000000E+00
  0.00000000E+00  0.00000000E+00  0.00000000E+00  0.00000000E+00  0.00000000E+00
  0.00000000E+00  0.00000000E+00  0.00000000E+00  0.00000000E+00  0.00000000E+00
IOpCl                                      I                1
IROHF                                      I                0
Alpha Orbital Energies                     R   N=          21
 -1.12283541E+01 -9.47336014E-01 -5.79270132E-01 -5.79270132E-01 -3.83381724E-01
  2.55887570E-01  3.31758950E-01  3.31758950E-01  7.37425367E-01  7.37425367E-01
  7.46374807E-01  8.90826448E-01  1.20488587E+00  1.20927239E+00  1.20927239E+00
  1.92381789E+00  1.92381789E+00  2.33044220E+00  2.53172372E+00  2.53172372E+00
  4.49768161E+00
Beta Orbital Energies                      R   N=          21
 -1.12045373E+01 -8.53825847E-01 -5.64534915E-01 -5.64534915E-01  1.57341251E-01
  2.81396750E-01  3.40706950E-01  3.40706950E-01  7.48771885E-01  7.48771885E-01
  8.95158717E-01  9.37420487E-01  1.21843023E+00  1.21843023E+00  1.23953605E+00
  2.02308122E+00  2.02308122E+00  2.41855832E+00  2.54774559E+00  2.54774559E+00
  4.53010827E+00
Alpha MO coefficients                      R   N=         441
  9.95090505E-01  3.01463427E-02  0.00000000E+00 -7.71393782E-17  0.00000000E+00
 -9.37144020E-03  0.00000000E+00 -4.34712093E-16  0.00000000E+00 -3.16752433E-03
 -3.16752433E-03 -2.52175246E-03  0.00000000E+00  0.00000000E+00  0.00000000E+00
 -1.48995368E-04  2.02073969E-03 -1.48995368E-04  2.02073969E-03 -1.48995368E-04
  2.02073969E-03 -2.03584889E-01  3.88104687E-01  0.00000000E+00 -1.18230848E-15
  0.00000000E+00  4.25375320E-01  0.00000000E+00  5.79283000E-15  0.00000000E+00
  1.12171744E-02  1.12171744E-02  6.17327712E-04  0.00000000E+00  0.00000000E+00
  0.00000000E+00  1.38533366E-01  3.00254506E-02  1.38533366E-01  3.00254506E-02
  1.38533366E-01  3.00254506E-02 -3.81885589E-16  1.39103832E-15  0.00000000E+00
  4.58394684E-01  0.00000000E+00  1.79837759E-15  0.00000000E+00  2.26555674E-01
  0.00000000E+00 -2.86658071E-02  2.86658071E-02 -1.45836412E-16  0.00000000E+00
  0.00000000E+00  0.00000000E+00  2.70473026E-01  1.93387899E-01 -1.35236513E-01
 -9.66939495E-02 -1.35236513E-01 -9.66939495E-02  0.00000000E+00  0.00000000E+00
  4.58394684E-01  0.00000000E+00  0.00000000E+00  0.00000000E+00  2.26555674E-01
  0.00000000E+00  0.00000000E+00  0.00000000E+00  0.00000000E+00  0.00000000E+00
 -3.31004229E-02  0.00000000E+00  0.00000000E+00  0.00000000E+00  0.00000000E+00
 -2.34236511E-01 -1.67478833E-01  2.34236511E-01  1.67478833E-01  0.00000000E+00
  0.00000000E+00  0.00000000E+00  0.00000000E+00  5.93029887E-01  0.00000000E+00
  0.00000000E+00  0.00000000E+00  5.35319308E-01  0.00000000E+00  0.00000000E+00
  0.00000000E+00  0.00000000E+00  0.00000000E+00 -1.92485503E-17  0.00000000E+00
  0.00000000E+00  0.00000000E+00  0.00000000E+00  0.00000000E+00  0.00000000E+00
 -1.44011866E-01  1.54868593E-01  0.00000000E+00  5.94484268E-15  0.00000000E+00
  2.38020905E+00  0.00000000E+00 -3.08125894E-14  0.00000000E+00 -1.53706436E-02
 -1.53706436E-02  4.13332911E-03  0.00000000E+00  0.00000000E+00  0.00000000E+00
 -3.91042503E-02 -1.16385458E+00 -3.91042503E-02 -1.16385458E+00 -3.91042503E-02
 -1.16385458E+00  0.00000000E+00  0.00000000E+00  3.09780231E-01  0.00000000E+00
  0.00000000E+00  0.00000000E+00  1.60127397E+00  0.00000000E+00  0.00000000E+00
  0.00000000E+00  0.00000000E+00  0.00000000E+00  1.42489835E-02  0.00000000E+00
  0.00000000E+00  0.00000000E+00  0.00000000E+00  3.79854692E-02  1.76815079E+00
 -3.79854692E-02 -1.76815079E+00  5.87560171E-16  6.32862909E-15  0.00000000E+00
 -3.09780231E-01  0.00000000E+00 -3.36072779E-14  0.00000000E+00 -1.60127397E+00
  0.00000000E+00 -1.23399817E-02  1.23399817E-02  2.11003654E-15  0.00000000E+00
  0.00000000E+00  0.00000000E+00  4.38618417E-02  2.04168467E+00 -2.19309208E-02
 -1.02084234E+00 -2.19309208E-02 -1.02084234E+00 -1.09670340E-15  1.67766418E-14
  0.00000000E+00 -7.31602352E-01  0.00000000E+00 -1.44884354E-14  0.00000000E+00
  1.63029399E+00  0.00000000E+00  9.15796965E-02 -9.15796965E-02  3.86485176E-15
  0.00000000E+00  0.00000000E+00  0.00000000E+00 -4.90507595E-01 -3.84549422E-01
  2.45253798E-01  1.92274711E-01  2.45253798E-01  1.92274711E-01  0.00000000E+00
  0.00000000E+00 -7.31602352E-01  0.00000000E+00  0.00000000E+00  0.00000000E+00
  1.63029399E+00  0.00000000E+00  0.00000000E+00  0.00000000E+00  0.00000000E+00
  0.00000000E+00  1.05747125E-01  0.00000000E+00  0.00000000E+00  0.00000000E+00
  0.00000000E+00  4.24792038E-01  3.33029568E-01 -4.24792038E-01 -3.33029568E-01
  0.00000000E+00  0.00000000E+00  0.00000000E+00  0.00000000E+00 -1.06252688E+00
  0.00000000E+00  0.00000000E+00  0.00000000E+00  1.09274016E+00  0.00000000E+00
  0.00000000E+00  0.00000000E+00  0.00000000E+00  0.00000000E+00  7.58114587E-17
  0.00000000E+00  0.00000000E+00  0.00000000E+00  0.00000000E+00  0.00000000E+00
  0.00000000E+00 -7.54190024E-02 -9.23226313E-01  0.00000000E+00  4.36926388E-15
  0.00000000E+00  2.28763986E+00  0.00000000E+00  4.44746225E-15  0.00000000E+00
 -1.81503091E-01 -1.81503091E-01  8.79781750E-02  0.00000000E+00  0.00000000E+00
  0.00000000E+00 -5.38202270E-01 -2.21061914E-01 -5.38202270E-01 -2.21061914E-01
 -5.38202270E-01 -2.21061914E-01  2.43043809E-02 -1.65289405E+00  0.00000000E+00
 -5.21558461E-13  0.00000000E+00  3.49820720E+00  0.00000000E+00  6.90754704E-13
  0.00000000E+00 -4.62361654E-02 -4.62361654E-02 -2.22497925E-01  0.00000000E+00
  0.00000000E+00  0.00000000E+00  4.46866095E-01 -1.13584690E+00  4.46866095E-01
 -1.13584690E+00  4.46866095E-01 -1.13584690E+00  1.41670989E-14 -9.19108940E-13
  0.00000000E+00  9.21001263E-01  0.00000000E+00  1.93838177E-12  0.00000000E+00
 -1.21062650E+00  0.00000000E+00  2.01883733E-01 -2.01883733E-01 -1.22852928E-13
  0.00000000E+00  0.00000000E+00  0.00000000E+00 -8.28489781E-01  1.49576694E+00
  4.14244891E-01 -7.47883472E-01  4.14244891E-01 -7.47883472E-01  0.00000000E+00
  0.00000000E+00 -9.21001263E-01  0.00000000E+00  0.00000000E+00  0.00000000E+00
  1.21062650E+00  0.00000000E+00  0.00000000E+00  0.00000000E+00  0.00000000E+00
  0.00000000E+00 -2.33115255E-01  0.00000000E+00  0.00000000E+00  0.00000000E+00
  0.00000000E+00 -7.17493197E-01  1.29537217E+00  7.17493197E-01 -1.29537217E+00
  0.00000000E+00  0.00000000E+00  0.00000000E+00  0.00000000E+00  0.00000000E+00
  0.00000000E+00  0.00000000E+00  0.00000000E+00  0.00000000E+00  0.00000000E+00
  0.00000000E+00  0.00000000E+00  0.00000000E+00  1.00000000E+00  0.00000000E+00
  0.00000000E+00  0.00000000E+00  0.00000000E+00  0.00000000E+00  0.00000000E+00
  0.00000000E+00  0.00000000E+00  0.00000000E+00  0.00000000E+00  0.00000000E+00
  1.57794699E-16  0.00000000E+00  0.00000000E+00  0.00000000E+00 -1.30986785E-17
  0.00000000E+00  0.00000000E+00  0.00000000E+00  0.00000000E+00  0.00000000E+00
  1.00000000E+00  0.00000000E+00  0.00000000E+00  0.00000000E+00  0.00000000E+00
  0.00000000E+00  0.00000000E+00  6.11884775E-02  1.12711063E-01  0.00000000E+00
 -2.99368576E-16  0.00000000E+00 -8.96323860E-01  0.00000000E+00  3.15461365E-15
  0.00000000E+00 -5.01478243E-01 -5.01478243E-01  1.10538274E+00  0.00000000E+00
  0.00000000E+00  0.00000000E+00  4.53675500E-01  8.23150195E-02  4.53675500E-01
  8.23150195E-02  4.53675500E-01  8.23150195E-02 -3.03135027E-16 -1.63547854E-14
  0.00000000E+00 -1.89704174E-01  0.00000000E+00  3.88361858E-14  0.00000000E+00
 -5.33014638E-01  0.00000000E+00  9.69685344E-01 -9.69685344E-01 -1.58258092E-15
  0.00000000E+00  0.00000000E+00  0.00000000E+00  8.08210556E-01 -3.40437024E-04
 -4.04105278E-01  1.70218512E-04 -4.04105278E-01  1.70218512E-04  0.00000000E+00
  0.00000000E+00 -1.89704174E-01  0.00000000E+00  0.00000000E+00  0.00000000E+00
 -5.33014638E-01  0.00000000E+00  0.00000000E+00  0.00000000E+00  0.00000000E+00
  0.00000000E+00  1.11969619E+00  0.00000000E+00  0.00000000E+00  0.00000000E+00
  0.00000000E+00 -6.99930873E-01  2.94827111E-04  6.99930873E-01 -2.94827111E-04
 -4.63532086E-01  3.09047322E+00  0.00000000E+00 -2.68002234E-15  0.00000000E+00
  1.76846801E+00  0.00000000E+00  9.88676834E-15  0.00000000E+00 -1.86637138E+00
 -1.86637138E+00 -1.79559835E+00  0.00000000E+00  0.00000000E+00  0.00000000E+00
  1.87669078E-01 -4.39510939E-01  1.87669078E-01 -4.39510939E-01  1.87669078E-01
 -4.39510939E-01
Beta MO coefficients                       R   N=         441
  9.96023271E-01  2.49751281E-02  0.00000000E+00 -1.63027109E-16  0.00000000E+00
 -9.85898601E-03  0.00000000E+00 -2.57786926E-16  0.00000000E+00 -1.06381689E-03
 -1.06381689E-03 -2.74682892E-03  0.00000000E+00  0.00000000E+00  0.00000000E+00
 -2.57299927E-04  2.13031964E-03 -2.57299927E-04  2.13031964E-03 -2.57299927E-04
  2.13031964E-03 -1.88507985E-01  3.61844448E-01  0.00000000E+00 -1.06890444E-15
  0.00000000E+00  2.92360045E-01  0.00000000E+00  7.39011273E-15  0.00000000E+00
  2.94815475E-02  2.94815475E-02 -3.26347177E-02  0.00000000E+00  0.00000000E+00
  0.00000000E+00  1.67235997E-01  8.11018214E-02  1.67235997E-01  8.11018214E-02
  1.67235997E-01  8.11018214E-02  0.00000000E+00  0.00000000E+00  4.25747457E-01
  0.00000000E+00  0.00000000E+00  0.00000000E+00  1.87644682E-01  0.00000000E+00
  0.00000000E+00  0.00000000E+00  0.00000000E+00  0.00000000E+00 -3.28441783E-02
  0.00000000E+00  0.00000000E+00  0.00000000E+00  0.00000000E+00 -2.54848861E-01
 -2.06948656E-01  2.54848861E-01  2.06948656E-01 -3.98478877E-16  1.74202998E-15
  0.00000000E+00  4.25747457E-01  0.00000000E+00  1.15038465E-15  0.00000000E+00
  1.87644682E-01  0.00000000E+00 -2.84438928E-02  2.84438928E-02 -1.38071602E-16
  0.00000000E+00  0.00000000E+00  0.00000000E+00  2.94274117E-01  2.38963725E-01
 -1.47137058E-01 -1.19481862E-01 -1.47137058E-01 -1.19481862E-01  0.00000000E+00
  0.00000000E+00  0.00000000E+00  0.00000000E+00  3.64882389E-01  0.00000000E+00
  0.00000000E+00  0.00000000E+00  7.46088072E-01  0.00000000E+00  0.00000000E+00
  0.00000000E+00  0.00000000E+00  0.00000000E+00 -1.12112361E-16  0.00000000E+00
  0.00000000E+00  0.00000000E+00  0.00000000E+00  0.00000000E+00  0.00000000E+00
 -1.53211583E-01  1.55921242E-01  0.00000000E+00  1.82304327E-14  0.00000000E+00
  2.44381412E+00  0.00000000E+00  5.32166936E-14  0.00000000E+00  2.67061365E-03
  2.67061365E-03 -2.67938660E-02  0.00000000E+00  0.00000000E+00  0.00000000E+00
 -9.95613154E-03 -1.18485870E+00 -9.95613154E-03 -1.18485870E+00 -9.95613154E-03
 -1.18485870E+00  0.00000000E+00  0.00000000E+00  3.09912401E-01  0.00000000E+00
  0.00000000E+00  0.00000000E+00  1.63703839E+00  0.00000000E+00  0.00000000E+00
  0.00000000E+00  0.00000000E+00  0.00000000E+00  9.79545222E-03  0.00000000E+00
  0.00000000E+00  0.00000000E+00  0.00000000E+00  2.44715894E-02  1.77888868E+00
 -2.44715894E-02 -1.77888868E+00 -6.62941613E-15  1.82024685E-14  0.00000000E+00
 -3.09912401E-01  0.00000000E+00  7.30405473E-14  0.00000000E+00 -1.63703839E+00
  0.00000000E+00 -8.48311047E-03  8.48311047E-03  2.31082425E-15  0.00000000E+00
  0.00000000E+00  0.00000000E+00  2.82573575E-02  2.05408372E+00 -1.41286787E-02
 -1.02704186E+00 -1.41286787E-02 -1.02704186E+00 -1.71328171E-15  6.29249627E-15
  0.00000000E+00 -7.10986997E-01  0.00000000E+00  8.52345653E-15  0.00000000E+00
  1.59082640E+00  0.00000000E+00  9.27053267E-02 -9.27053267E-02  3.26699139E-15
  0.00000000E+00  0.00000000E+00  0.00000000E+00 -5.12238028E-01 -3.33035993E-01
  2.56119014E-01  1.66517996E-01  2.56119014E-01  1.66517996E-01  0.00000000E+00
  0.00000000E+00 -7.10986997E-01  0.00000000E+00  0.00000000E+00  0.00000000E+00
  1.59082640E+00  0.00000000E+00  0.00000000E+00  0.00000000E+00  0.00000000E+00
  0.00000000E+00  1.07046891E-01  0.00000000E+00  0.00000000E+00  0.00000000E+00
  0.00000000E+00  4.43611145E-01  2.88417630E-01 -4.43611145E-01 -2.88417630E-01
  0.00000000E+00  0.00000000E+00  0.00000000E+00  0.00000000E+00  1.16082241E+00
  0.00000000E+00  0.00000000E+00  0.00000000E+00 -9.61249401E-01  0.00000000E+00
  0.00000000E+00  0.00000000E+00  0.00000000E+00  0.00000000E+00 -8.76548140E-17
  0.00000000E+00  0.00000000E+00  0.00000000E+00  0.00000000E+00  0.00000000E+00
  0.00000000E+00 -9.12119879E-02 -8.78094151E-01  0.00000000E+00  8.26801608E-15
  0.00000000E+00  2.36640516E+00  0.00000000E+00 -9.91719803E-15  0.00000000E+00
 -1.67444961E-01 -1.67444961E-01  4.77555964E-02  0.00000000E+00  0.00000000E+00
  0.00000000E+00 -5.52557709E-01 -2.44073163E-01 -5.52557709E-01 -2.44073163E-01
 -5.52557709E-01 -2.44073163E-01 -8.45462517E-15  4.54831878E-13  0.00000000E+00
  9.52313450E-01  0.00000000E+00 -9.43706215E-13  0.00000000E+00 -1.22202316E+00
  0.00000000E+00  1.94211560E-01 -1.94211560E-01  5.40683618E-14  0.00000000E+00
  0.00000000E+00  0.00000000E+00 -8.15090755E-01  1.48451651E+00  4.07545377E-01
 -7.42258255E-01  4.07545377E-01 -7.42258255E-01  0.00000000E+00  0.00000000E+00
 -9.52313450E-01  0.00000000E+00  0.00000000E+00  0.00000000E+00  1.22202316E+00
  0.00000000E+00  0.00000000E+00  0.00000000E+00  0.00000000E+00  0.00000000E+00
 -2.24256193E-01  0.00000000E+00  0.00000000E+00  0.00000000E+00  0.00000000E+00
 -7.05889300E-01  1.28562901E+00  7.05889300E-01 -1.28562901E+00  3.20321725E-02
 -1.66164497E+00  0.00000000E+00  2.53981534E-13  0.00000000E+00  3.42648390E+00
  0.00000000E+00 -3.29067360E-13  0.00000000E+00 -7.59228227E-02 -7.59228227E-02
 -1.87196402E-01  0.00000000E+00  0.00000000E+00  0.00000000E+00  4.52982265E-01
 -1.10743868E+00  4.52982265E-01 -1.10743868E+00  4.52982265E-01 -1.10743868E+00
  0.00000000E+00  0.00000000E+00  0.00000000E+00  0.00000000E+00  0.00000000E+00
  0.00000000E+00  0.00000000E+00  0.00000000E+00  0.00000000E+00  0.00000000E+00
  0.00000000E+00  0.00000000E+00  0.00000000E+00  1.00000000E+00  0.00000000E+00
  0.00000000E+00  0.00000000E+00  0.00000000E+00  0.00000000E+00  0.00000000E+00
  0.00000000E+00  0.00000000E+00  0.00000000E+00  0.00000000E+00  0.00000000E+00
  9.43759988E-17  0.00000000E+00  0.00000000E+00  0.00000000E+00 -7.96234596E-17
  0.00000000E+00  0.00000000E+00  0.00000000E+00  0.00000000E+00  0.00000000E+00
  1.00000000E+00  0.00000000E+00  0.00000000E+00  0.00000000E+00  0.00000000E+00
  0.00000000E+00  0.00000000E+00  5.02241762E-02  1.60275936E-01  0.00000000E+00
  2.29572465E-17  0.00000000E+00 -8.83841750E-01  0.00000000E+00  8.32256310E-15
  0.00000000E+00 -5.07223709E-01 -5.07223709E-01  1.11236050E+00  0.00000000E+00
  0.00000000E+00  0.00000000E+00  4.21618357E-01  9.14509643E-02  4.21618357E-01
  9.14509643E-02  4.21618357E-01  9.14509643E-02 -6.37565738E-17 -6.94995614E-15
  0.00000000E+00 -1.89347482E-01  0.00000000E+00  1.75554237E-14  0.00000000E+00
 -5.32739136E-01  0.00000000E+00  9.71192116E-01 -9.71192116E-01  5.23234851E-15
  0.00000000E+00  0.00000000E+00  0.00000000E+00  8.00699926E-01  2.54535326E-03
 -4.00349963E-01 -1.27267663E-03 -4.00349963E-01 -1.27267663E-03  0.00000000E+00
  0.00000000E+00 -1.89347482E-01  0.00000000E+00  0.00000000E+00  0.00000000E+00
 -5.32739136E-01  0.00000000E+00  0.00000000E+00  0.00000000E+00  0.00000000E+00
  0.00000000E+00  1.12143606E+00  0.00000000E+00  0.00000000E+00  0.00000000E+00
  0.00000000E+00 -6.93426477E-01 -2.20434058E-03  6.93426477E-01  2.20434058E-03
 -4.62964933E-01  3.09999743E+00  0.00000000E+00 -2.07794653E-15  0.00000000E+00
  1.75168828E+00  0.00000000E+00  9.26314009E-15  0.00000000E+00 -1.86502558E+00
 -1.86502558E+00 -1.79634471E+00  0.00000000E+00  0.00000000E+00  0.00000000E+00
  1.86469105E-01 -4.35428146E-01  1.86469105E-01 -4.35428146E-01  1.86469105E-01
 -4.35428146E-01
Total SCF Density                          R   N=         231
  2.05924954E+00 -9.23486691E-02  2.83089212E-01 -8.98767307E-33  3.69778549E-32
  3.91386584E-01 -5.20001085E-33  2.77333912E-32  0.00000000E+00  3.91386584E-01
  1.42547451E-50 -6.84227766E-49 -5.53383871E-32 -5.17867283E-34  3.51684447E-01
 -1.60857401E-01  2.70350271E-01  4.10865055E-32  4.41679934E-32 -2.62583153E-48
  2.66603583E-01 -2.30084431E-31  4.60168861E-31  1.83741163E-01  0.00000000E+00
  1.64153429E-31  4.60168861E-31  8.65380002E-02 -1.15042215E-31  4.10865055E-31
  1.15648232E-18  1.83741163E-01  2.04425133E-36  3.45126646E-31  5.78241159E-19
  8.65380002E-02  3.64921475E-48 -3.64921475E-48  1.64025034E-31 -1.49463377E-33
  3.17460349E-01 -3.64921475E-48  1.64795406E-31 -1.32074659E-33  2.86566762E-01
 -1.20527141E-02  1.48991140E-02  8.67361738E-18 -2.52501686E-02  3.62475686E-34
  1.34309082E-02  4.11996826E-18 -1.18317465E-02  1.67414740E-34  2.63693510E-03
 -1.20527141E-02  1.48991140E-02 -9.10729825E-18  2.52501686E-02 -3.78525103E-34
  1.34309082E-02 -4.19224840E-18  1.18317465E-02 -1.75439448E-34 -6.24631970E-04
  2.63693510E-03  7.80948809E-04 -1.17137276E-02 -7.70371978E-33 -6.41976648E-33
  6.54870682E-49 -9.22777817E-03 -2.72198099E-32 -2.36247407E-32  1.26936943E-48
 -9.44287472E-04 -9.44287472E-04  1.07931020E-03 -8.34619222E-20  0.00000000E+00
 -2.91563833E-02 -1.03492783E-17 -3.35434079E-33 -1.66923844E-19 -1.36621240E-02
 -4.92425341E-18 -1.59145865E-32  3.12982208E-20 -3.12982208E-20  0.00000000E+00
  2.17437805E-03 -4.60318410E-32  1.33663994E-32  4.00018601E-34  5.86546331E-33
 -8.89548937E-34  1.42374161E-32  2.11846160E-34 -7.19052058E-33 -5.93032625E-34
  7.06542776E-35 -3.94968994E-34 -6.20993911E-34  1.54640307E-35  2.03338261E-34
 -1.23778589E-34  1.97922104E-34  5.87472944E-33 -4.74147679E-34 -7.41290781E-35
  1.98203730E-34 -7.18588751E-33 -2.11846160E-34 -5.93032625E-34  3.05635475E-36
  1.82581731E-35 -1.87399583E-35  2.67490270E-34  1.48486928E-50  2.03338261E-34
 -6.01331613E-02  1.14267948E-01 -3.00685403E-17  2.49269854E-01 -1.02716264E-33
  1.07825732E-01 -1.44560290E-17  1.16496172E-01 -4.49383654E-34 -9.63855442E-03
  2.26087036E-02 -5.37109657E-03 -4.34001995E-18  6.48166127E-33 -2.87999209E-35
  2.06912374E-01 -1.72684021E-02  4.11133848E-02 -2.19731640E-17  1.90386183E-01
 -7.70371978E-34  3.64430778E-02 -1.15648232E-17  8.86533980E-02 -4.49383654E-34
 -9.62153787E-03  1.50598197E-02 -2.63914693E-03 -3.33847689E-18  1.36941889E-32
 -6.71726191E-35  1.40348871E-01  1.01990196E-01 -6.01331613E-02  1.14267948E-01
 -2.15874026E-01 -1.24634927E-01  1.78469508E-32  1.07825732E-01 -1.00888644E-01
 -5.82480859E-02 -9.79656365E-32  1.45468891E-02 -1.57673991E-03 -5.37109657E-03
  1.61236290E-02  3.26986200E-33 -1.62681630E-33 -3.27169960E-02 -4.35917032E-02
  2.06912374E-01 -1.72684021E-02  4.11133848E-02 -1.64879271E-01 -9.51930915E-02
  1.49516361E-31  3.64430778E-02 -7.67760948E-02 -4.43266990E-02 -1.22938528E-32
  8.88948030E-03 -3.45119848E-03 -2.63914693E-03  1.23406788E-02 -6.04858631E-33
 -1.12650495E-32 -4.35917032E-02 -3.97636159E-02  1.40348871E-01  1.01990196E-01
 -6.01331613E-02  1.14267948E-01  2.15874026E-01 -1.24634927E-01 -1.68197882E-32
  1.07825732E-01  1.00888644E-01 -5.82480859E-02  9.84150202E-32  1.45468891E-02
 -1.57673991E-03 -5.37109657E-03 -1.61236290E-02  3.51294865E-33  1.98002665E-33
 -3.27169960E-02 -4.35917032E-02 -3.27169960E-02 -4.35917032E-02  2.06912374E-01
 -1.72684021E-02  4.11133848E-02  1.64879271E-01 -9.51930915E-02 -1.48810187E-31
  3.64430778E-02  7.67760948E-02 -4.43266990E-02  1.27111376E-32  8.88948030E-03
 -3.45119848E-03 -2.63914693E-03 -1.23406788E-02 -5.91862674E-33  1.14491424E-32
 -4.35917032E-02 -3.97636159E-02 -4.35917032E-02 -3.97636159E-02  1.40348871E-01
  1.01990196E-01
Spin SCF Density                           R   N=         231
  4.05430284E-03 -5.67915126E-03  1.99788882E-02  7.44692912E-33 -1.23259516E-32
  2.88647893E-02  5.07161552E-33 -1.02716264E-33  0.00000000E+00  2.88647893E-02
  1.42547451E-50  2.28075922E-49 -7.83211511E-33 -2.05861124E-33  3.51684447E-01
 -3.09934360E-02  5.92650110E-02  8.21730110E-33  1.74617648E-32 -5.22438365E-49
  9.54603913E-02  3.28692044E-32 -6.57384088E-32  2.39626708E-02  0.00000000E+00
 -1.88099158E-32  6.57384088E-32  1.61169471E-02 -1.64346022E-32  1.64346022E-32