hf/6-31G* opted                                                         
FOpt      RHF                                                         6-31G(d)            
Number of atoms                            I                5
Info1-9                                    I   N=           9
          19          12           0           0           0         110
           2           1           2
Charge                                     I                0
Multiplicity                               I                1
Number of electrons                        I               18
Number of alpha electrons                  I                9
Number of beta electrons                   I                9
Number of basis functions                  I               36
Number of independent functions            I               36
Number of point charges in /Mol/           I                0
Number of translation vectors              I                0
Atomic numbers                             I   N=           5
           6           1           1           1           9
Nuclear charges                            R   N=           5
  6.00000000E+00  1.00000000E+00  1.00000000E+00  1.00000000E+00  9.00000000E+00
Current cartesian coordinates              R   N=          15
  0.00000000E+00  0.00000000E+00 -1.17781370E+00  7.27310805E-10  1.93167386E+00
 -1.84681040E+00  1.67287864E+00 -9.65836932E-01 -1.84681040E+00 -1.67287864E+00
 -9.65836930E-01 -1.84681040E+00  0.00000000E+00  0.00000000E+00  1.40081260E+00
Force Field                                I                0
Int Atom Types                             I   N=           5
           0           0           0           0           0
MM charges                                 R   N=           5
  0.00000000E+00  0.00000000E+00  0.00000000E+00  0.00000000E+00  0.00000000E+00
Integer atomic weights                     I   N=           5
          12           1           1           1          19
Real atomic weights                        R   N=           5
  1.20000000E+01  1.00782504E+00  1.00782504E+00  1.00782504E+00  1.89984032E+01
Atom fragment info                         I   N=           5
           0           0           0           0           0
Atom residue num                           I   N=           5
           0           0           0           0           0
Nuclear spins                              I   N=           5
           0           1           1           1           1
Nuclear ZEff                               R   N=           5
 -3.60000000E+00 -1.00000000E+00 -1.00000000E+00 -1.00000000E+00 -6.75000000E+00
Nuclear ZNuc                               R   N=           5
  6.00000000E+00  1.00000000E+00  1.00000000E+00  1.00000000E+00  9.00000000E+00
Nuclear QMom                               R   N=           5
  0.00000000E+00  0.00000000E+00  0.00000000E+00  0.00000000E+00  0.00000000E+00
Nuclear GFac                               R   N=           5
  0.00000000E+00  2.79284600E+00  2.79284600E+00  2.79284600E+00  2.62886700E+00
MicOpt                                     I   N=           5
          -1          -1          -1          -1          -1
Number of contracted shells                I               14
Number of primitive shells                 I               34
Pure/Cartesian d shells                    I                1
Pure/Cartesian f shells                    I                0
Highest angular momentum                   I                2
Largest degree of contraction              I                6
Shell types                                I   N=          14
           0          -1          -1           2           0           0
           0           0           0           0           0          -1
          -1           2
Number of primitives per shell             I   N=          14
           6           3           1           1           3           1
           3           1           3           1           6           3
           1           1
Shell to atom map                          I   N=          14
           1           1           1           1           2           2
           3           3           4           4           5           5
           5           5
Primitive exponents                        R   N=          34
  3.04752488E+03  4.57369518E+02  1.03948685E+02  2.92101553E+01  9.28666296E+00
  3.16392696E+00  7.86827235E+00  1.88128854E+00  5.44249258E-01  1.68714478E-01
  8.00000000E-01  1.87311370E+01  2.82539436E+00  6.40121692E-01  1.61277759E-01
  1.87311370E+01  2.82539436E+00  6.40121692E-01  1.61277759E-01  1.87311370E+01
  2.82539436E+00  6.40121692E-01  1.61277759E-01  7.00171309E+03  1.05136609E+03
  2.39285690E+02  6.73974453E+01  2.15199573E+01  7.40310130E+00  2.08479528E+01
  4.80830834E+00  1.34406986E+00  3.58151393E-01  8.00000000E-01
Contraction coefficients                   R   N=          34
  1.83473713E-03  1.40373228E-02  6.88426223E-02  2.32184443E-01  4.67941348E-01
  3.62311985E-01 -1.19332420E-01 -1.60854152E-01  1.14345644E+00  1.00000000E+00
  1.00000000E+00  3.34946043E-02  2.34726953E-01  8.13757326E-01  1.00000000E+00
  3.34946043E-02  2.34726953E-01  8.13757326E-01  1.00000000E+00  3.34946043E-02
  2.34726953E-01  8.13757326E-01  1.00000000E+00  1.81961690E-03  1.39160796E-02
  6.84053245E-02  2.33185760E-01  4.71267439E-01  3.56618546E-01 -1.08506975E-01
 -1.46451658E-01  1.12868858E+00  1.00000000E+00  1.00000000E+00
P(S=P) Contraction coefficients            R   N=          34
  0.00000000E+00  0.00000000E+00  0.00000000E+00  0.00000000E+00  0.00000000E+00
  0.00000000E+00  6.89990666E-02  3.16423961E-01  7.44308291E-01  1.00000000E+00
  0.00000000E+00  0.00000000E+00  0.00000000E+00  0.00000000E+00  0.00000000E+00
  0.00000000E+00  0.00000000E+00  0.00000000E+00  0.00000000E+00  0.00000000E+00
  0.00000000E+00  0.00000000E+00  0.00000000E+00  0.00000000E+00  0.00000000E+00
  0.00000000E+00  0.00000000E+00  0.00000000E+00  0.00000000E+00  7.16287242E-02
  3.45912103E-01  7.22469956E-01  1.00000000E+00  0.00000000E+00
Coordinates of each shell                  R   N=          42
  0.00000000E+00  0.00000000E+00 -1.17781370E+00  0.00000000E+00  0.00000000E+00
 -1.17781370E+00  0.00000000E+00  0.00000000E+00 -1.17781370E+00  0.00000000E+00
  0.00000000E+00 -1.17781370E+00  0.00000000E+00  1.93167386E+00 -1.84681040E+00
  0.00000000E+00  1.93167386E+00 -1.84681040E+00  1.67287864E+00 -9.65836931E-01
 -1.84681040E+00  1.67287864E+00 -9.65836931E-01 -1.84681040E+00 -1.67287864E+00
 -9.65836931E-01 -1.84681040E+00 -1.67287864E+00 -9.65836931E-01 -1.84681040E+00
  0.00000000E+00  0.00000000E+00  1.40081260E+00  0.00000000E+00  0.00000000E+00
  1.40081260E+00  0.00000000E+00  0.00000000E+00  1.40081260E+00  0.00000000E+00
  0.00000000E+00  1.40081260E+00
Constraint Structure                       R   N=          15
  0.00000000E+00  0.00000000E+00 -1.16308981E+00  0.00000000E+00  1.90641691E+00
 -1.83794175E+00  1.65100548E+00 -9.53208456E-01 -1.83794175E+00 -1.65100548E+00
 -9.53208456E-01 -1.83794175E+00  0.00000000E+00  0.00000000E+00  1.38804045E+00
Num ILSW                                   I              100
ILSW                                       I   N=         100
           0           1           0           0           2           0
           0           0           0           0           0          -1
           0           0           0           0           2           0
           0           0           0           0           1           0
           1           0           0           0           0           0
           0           0      100000           0          -1           0
           0           0           0           0           0           0
           0           0           0           1           0           0
           0           0           1           0           0           0
           0           0           4          41           0           0
           0           0           0           0           0           0
           0           0           0           5           0           0
           0           0           0           0           0           0
           0           0           0           0           0           0
           0           0           0           0           0           0
           0           0           0           0           0           0
           0           0           0           0
Num RLSW                                   I               41
RLSW                                       R   N=          41
  1.00000000E+00  1.00000000E+00  1.00000000E+00  1.00000000E+00  1.00000000E+00
  0.00000000E+00  0.00000000E+00  1.00000000E+00  0.00000000E+00  0.00000000E+00
  0.00000000E+00  0.00000000E+00  1.00000000E+00  0.00000000E+00  0.00000000E+00
  0.00000000E+00  0.00000000E+00  1.00000000E+00  0.00000000E+00  0.00000000E+00
  0.00000000E+00  0.00000000E+00  1.00000000E+00  0.00000000E+00  0.00000000E+00
  0.00000000E+00  0.00000000E+00  1.00000000E+00  0.00000000E+00  0.00000000E+00
  0.00000000E+00  0.00000000E+00  1.00000000E+00  0.00000000E+00  0.00000000E+00
  0.00000000E+00  0.00000000E+00  0.00000000E+00  1.00000000E+00  1.00000000E+00
  0.00000000E+00
MxBond                                     I                4
NBond                                      I   N=           5
           4           1           1           1           1
IBond                                      I   N=          20
           2           3           4           5           1           0
           0           0           1           0           0           0
           1           0           0           0           1           0
           0           0
RBond                                      R   N=          20
  1.00000000E+00  1.00000000E+00  1.00000000E+00  1.00000000E+00  1.00000000E+00
  0.00000000E+00  0.00000000E+00  0.00000000E+00  1.00000000E+00  0.00000000E+00
  0.00000000E+00  0.00000000E+00  1.00000000E+00  0.00000000E+00  0.00000000E+00
  0.00000000E+00  1.00000000E+00  0.00000000E+00  0.00000000E+00  0.00000000E+00
Virial Ratio                               R      2.001262144867087E+00
SCF Energy                                 R     -1.390346152104868E+02
Total Energy                               R     -1.390346152104868E+02
RMS Force                                  R      2.263320565839485E-05
RMS Density                                R      4.222292378759361E-09
External E-field                           R   N=          35
  0.00000000E+00  0.00000000E+00  0.00000000E+00  0.00000000E+00  0.00000000E+00
  0.00000000E+00  0.00000000E+00  0.00000000E+00  0.00000000E+00  0.00000000E+00
  0.00000000E+00  0.00000000E+00  0.00000000E+00  0.00000000E+00  0.00000000E+00
  0.00000000E+00  0.00000000E+00  0.00000000E+00  0.00000000E+00  0.00000000E+00
  0.00000000E+00  0.00000000E+00  0.00000000E+00  0.00000000E+00  0.00000000E+00
  0.00000000E+00  0.00000000E+00  0.00000000E+00  0.00000000E+00  0.00000000E+00
  0.00000000E+00  0.00000000E+00  0.00000000E+00  0.00000000E+00  0.00000000E+00
IOpCl                                      I                0
IROHF                                      I                0
Alpha Orbital Energies                     R   N=          36
 -2.62703909E+01 -1.12999069E+01 -1.58157076E+00 -9.52888987E-01 -6.91449290E-01
 -6.91449290E-01 -6.69990008E-01 -5.22417915E-01 -5.22417915E-01  2.50680522E-01
  3.18447294E-01  3.19763513E-01  3.19763513E-01  7.40100957E-01  7.40100957E-01
  7.87650955E-01  1.10517435E+00  1.12090950E+00  1.12090950E+00  1.20282631E+00
  1.45099480E+00  1.57707516E+00  1.57707516E+00  1.80245547E+00  1.80245547E+00
  2.10071596E+00  2.12558378E+00  2.12558378E+00  2.47012528E+00  2.53379601E+00
  2.53379601E+00  2.78270316E+00  2.78270316E+00  3.37551972E+00  4.47502385E+00
  4.63754588E+00
Alpha MO coefficients                      R   N=        1296
 -1.68998331E-05  2.49406919E-04  0.00000000E+00  1.06577176E-17  5.79314130E-04
  1.44771706E-05  0.00000000E+00 -8.66555821E-16 -1.73898256E-04 -5.70897033E-05
 -5.70897033E-05  3.11868379E-04  0.00000000E+00  0.00000000E+00 -9.38242625E-16
 -1.38969985E-05 -8.22960455E-05 -1.38969985E-05 -8.22960455E-05 -1.38969985E-05
 -8.22960455E-05  9.94416475E-01  1.77629092E-02  0.00000000E+00 -1.59402016E-16
 -9.12488323E-04  8.24106401E-03  0.00000000E+00  6.06808900E-16  6.07954907E-04
 -4.55300172E-03 -4.55300172E-03 -5.06795474E-03  0.00000000E+00  0.00000000E+00
 -6.05633098E-16  9.95767584E-01  2.73234685E-02  0.00000000E+00 -3.35681247E-16
  1.36378299E-03 -1.11457520E-02  0.00000000E+00  1.00541122E-16  7.42353590E-04
 -1.80700428E-03 -1.80700428E-03 -1.27460356E-03  0.00000000E+00  0.00000000E+00
 -2.20191480E-16  3.35208971E-05  2.38587986E-03  3.35208971E-05  2.38587986E-03
  3.35208971E-05  2.38587986E-03 -1.41923065E-04  1.28757296E-04  0.00000000E+00
 -2.77665118E-16 -3.26321730E-04  7.21216479E-04  0.00000000E+00  1.44650709E-16
  1.13646066E-03  1.03762047E-04  1.03762047E-04 -1.10616809E-03  0.00000000E+00
  0.00000000E+00 -6.43038316E-16 -5.55307121E-02  9.64282065E-02  0.00000000E+00
 -5.21640894E-16  8.53336094E-02  3.23958766E-02  0.00000000E+00  3.82233778E-15
  4.55141730E-03 -7.25870866E-03 -7.25870866E-03  2.27389249E-02  0.00000000E+00
  0.00000000E+00 -2.99328252E-16  1.53976072E-02  2.25266706E-03  1.53976072E-02
  2.25266706E-03  1.53976072E-02  2.25266706E-03 -2.21047227E-01  5.15732871E-01
  0.00000000E+00  8.04439478E-17 -6.40137550E-02  4.33589554E-01  0.00000000E+00
 -6.65395458E-16 -3.87838780E-02  2.20307828E-02  2.20307828E-02  3.86486717E-02
  0.00000000E+00  0.00000000E+00  5.31162121E-17 -1.82494117E-01  3.61051649E-01
  0.00000000E+00  3.62007138E-16 -5.83010045E-02  3.15965731E-01  0.00000000E+00
 -8.44717303E-15 -4.37757015E-02  1.27483326E-02  1.27483326E-02 -3.00956331E-03
  0.00000000E+00  0.00000000E+00  1.23665544E-16  1.39680514E-01  3.67055073E-02
  1.39680514E-01  3.67055073E-02  1.39680514E-01  3.67055073E-02  6.45247600E-02
 -1.38104154E-01  0.00000000E+00 -4.83866608E-16 -2.10164344E-01 -2.21689902E-01
  0.00000000E+00  1.04813144E-15 -1.26429730E-01 -3.33554892E-03 -3.33554892E-03
  2.07904336E-02  0.00000000E+00  0.00000000E+00 -9.14604575E-17  0.00000000E+00
  0.00000000E+00  2.93451651E-01  0.00000000E+00  0.00000000E+00  0.00000000E+00
  1.46201958E-01  0.00000000E+00  0.00000000E+00  0.00000000E+00  0.00000000E+00
  0.00000000E+00 -1.75058486E-02  3.21779204E-03  0.00000000E+00  0.00000000E+00
  0.00000000E+00  1.28496668E-01  7.61573808E-02 -1.28496668E-01 -7.61573808E-02
  0.00000000E+00  0.00000000E+00  4.99325850E-01  0.00000000E+00  0.00000000E+00
  0.00000000E+00  3.40807679E-01  0.00000000E+00  0.00000000E+00  0.00000000E+00
  0.00000000E+00  0.00000000E+00 -2.48019960E-04 -2.18443599E-02  0.00000000E+00
  4.50549548E-16  1.53814726E-15  0.00000000E+00  2.93451651E-01  7.19363749E-15
 -8.96129603E-15  0.00000000E+00  1.46201958E-01  2.26706854E-15 -1.51605096E-02
  1.51605096E-02  7.91459307E-16  0.00000000E+00  0.00000000E+00  3.21779204E-03
  1.48375172E-01  8.79389686E-02 -7.41875861E-02 -4.39694843E-02 -7.41875861E-02
 -4.39694843E-02  7.14691719E-16 -1.41066733E-15  0.00000000E+00  4.99325850E-01
 -1.13063443E-14 -2.49846789E-15  0.00000000E+00  3.40807679E-01 -8.57873930E-15
 -2.14791586E-04  2.14791586E-04  9.80374393E-16  0.00000000E+00  0.00000000E+00
 -2.18443599E-02 -2.00681940E-02  3.43429695E-02  0.00000000E+00  5.48233202E-15
 -3.28747553E-01  1.07528006E-01  0.00000000E+00  2.66045465E-15 -9.78145231E-02
  2.01087740E-02  2.01087740E-02 -3.93669176E-02  0.00000000E+00  0.00000000E+00
  4.70196836E-17  8.50527572E-02  5.32255597E-02  8.50527572E-02  5.32255597E-02
  8.50527572E-02  5.32255597E-02 -3.42365833E-02  6.31939040E-02  0.00000000E+00
  1.15178901E-14  5.10950487E-01  1.56725399E-01  0.00000000E+00  7.84398571E-15
  3.57207216E-01  1.64569362E-03  1.64569362E-03 -3.58129255E-02  0.00000000E+00
  0.00000000E+00 -3.56685414E-16  0.00000000E+00  0.00000000E+00 -3.57481618E-01
  0.00000000E+00  0.00000000E+00  0.00000000E+00 -1.33215176E-01  0.00000000E+00
  0.00000000E+00  0.00000000E+00  0.00000000E+00  0.00000000E+00  2.56670500E-02
  3.51237130E-02  0.00000000E+00  0.00000000E+00  0.00000000E+00 -2.13058891E-01
 -2.01017530E-01  2.13058891E-01  2.01017530E-01  0.00000000E+00  0.00000000E+00
  4.33159972E-01  0.00000000E+00  0.00000000E+00  0.00000000E+00  3.45972091E-01
  0.00000000E+00  0.00000000E+00  0.00000000E+00  0.00000000E+00  0.00000000E+00
  1.18444252E-03 -9.26363745E-03  0.00000000E+00 -5.80240452E-16 -4.99001131E-15
  0.00000000E+00 -3.57481618E-01  5.29893215E-16  2.07994719E-14  0.00000000E+00
 -1.33215176E-01 -4.97057802E-15  2.22283174E-02 -2.22283174E-02 -3.41212123E-16
  0.00000000E+00  0.00000000E+00  3.51237130E-02 -2.46019216E-01 -2.32115050E-01
  1.23009608E-01  1.16057525E-01  1.23009608E-01  1.16057525E-01 -2.58623044E-16
 -2.74634786E-15  0.00000000E+00  4.33159972E-01 -6.33484971E-16  5.95107126E-15
  0.00000000E+00  3.45972091E-01 -5.15660810E-16  1.02575732E-03 -1.02575732E-03
 -1.68562431E-15  0.00000000E+00  0.00000000E+00 -9.26363745E-03 -1.23214442E-01
  1.05654069E-01  0.00000000E+00  9.08894424E-14 -1.93260659E-01  2.31259451E+00
  0.00000000E+00  5.37715747E-13 -7.83480285E-01 -1.32573375E-02 -1.32573375E-02
 -8.29403717E-03  0.00000000E+00  0.00000000E+00 -1.76058120E-15 -9.26387888E-03
 -1.19953743E+00 -9.26387888E-03 -1.19953743E+00 -9.26387888E-03 -1.19953743E+00
 -1.51915287E-02  3.65603424E-02  0.00000000E+00 -2.86801443E-14 -1.01271551E-02
  1.27437632E-01  0.00000000E+00 -7.29883025E-14 -3.10656186E-02 -6.75526045E-04
 -6.75526045E-04  1.41281099E-02  0.00000000E+00  0.00000000E+00  2.03205207E-15
 -1.00031803E-01  1.10598757E-01  0.00000000E+00  9.28121385E-15  2.10842780E-01
  1.32969376E+00  0.00000000E+00  4.62847373E-14  1.15537951E+00  1.82518220E-02
  1.82518220E-02 -8.26974842E-03  0.00000000E+00  0.00000000E+00 -1.35025871E-16
  4.29552324E-02 -3.00742274E-01  4.29552324E-02 -3.00742274E-01  4.29552324E-02
 -3.00742274E-01  9.09595394E-02 -1.16210546E-02  0.00000000E+00 -3.18990781E-15
  2.61521845E-01 -1.21898076E+00  0.00000000E+00 -6.42364132E-15  5.94564486E-01
  7.64347010E-02  7.64347010E-02  4.67163235E-02  0.00000000E+00  0.00000000E+00
 -4.02502029E-17 -4.10046577E-14  1.11987148E-13  0.00000000E+00 -3.65715791E-01
 -6.88170855E-14  6.41082890E-13  0.00000000E+00 -1.48380251E+00 -1.74171894E-13
 -1.23362424E-02  1.23362424E-02  2.21674223E-15  0.00000000E+00  0.00000000E+00
  7.32946476E-04  4.17719898E-02  1.93857781E+00 -2.08859949E-02 -9.69288904E-01
 -2.08859949E-02 -9.69288904E-01  2.53500155E-15  5.69949969E-14  0.00000000E+00
  8.62221375E-02  4.13320720E-15 -1.00219397E-13  0.00000000E+00  1.94504431E-01
  1.13492076E-14 -5.78454898E-03  5.78454898E-03  3.21737088E-14  0.00000000E+00
  0.00000000E+00  2.05371796E-03  0.00000000E+00  0.00000000E+00 -3.65715791E-01
  0.00000000E+00  0.00000000E+00  0.00000000E+00 -1.48380251E+00  0.00000000E+00
  0.00000000E+00  0.00000000E+00  0.00000000E+00  0.00000000E+00 -1.42446657E-02
  7.32946476E-04  0.00000000E+00  0.00000000E+00  0.00000000E+00  3.61756043E-02
  1.67885763E+00 -3.61756043E-02 -1.67885763E+00  0.00000000E+00  0.00000000E+00
  8.62221375E-02  0.00000000E+00  0.00000000E+00  0.00000000E+00  1.94504431E-01
  0.00000000E+00  0.00000000E+00  0.00000000E+00  0.00000000E+00  0.00000000E+00
 -6.67942183E-03  2.05371796E-03  0.00000000E+00  0.00000000E+00  0.00000000E+00
 -7.29797412E-01  0.00000000E+00  0.00000000E+00  0.00000000E+00  1.70054616E+00
  0.00000000E+00  0.00000000E+00  0.00000000E+00  0.00000000E+00  0.00000000E+00
  1.03373124E-01  2.78751490E-02  0.00000000E+00  0.00000000E+00  0.00000000E+00
 -4.12049015E-01 -3.51882506E-01  4.12049015E-01  3.51882506E-01  0.00000000E+00
  0.00000000E+00 -1.32398647E-01  0.00000000E+00  0.00000000E+00  0.00000000E+00
 -2.04025700E-01  0.00000000E+00  0.00000000E+00  0.00000000E+00  0.00000000E+00
  0.00000000E+00  1.66496154E-02  2.76660961E-02  0.00000000E+00  2.50178145E-15
 -5.83884663E-14  0.00000000E+00 -7.29797412E-01 -9.17222243E-16  6.98210890E-14
  0.00000000E+00  1.70054616E+00  5.58316515E-15  8.95237516E-02 -8.95237516E-02
 -2.59185643E-15  0.00000000E+00  0.00000000E+00  2.78751490E-02 -4.75793220E-01
 -4.06318919E-01  2.37896610E-01  2.03159460E-01  2.37896610E-01  2.03159460E-01
 -1.23399492E-15 -1.18968232E-14  0.00000000E+00 -1.32398647E-01 -7.24628274E-15
  1.62944250E-14  0.00000000E+00 -2.04025700E-01  1.58811513E-15  1.44189899E-02
 -1.44189899E-02 -1.05963359E-14  0.00000000E+00  0.00000000E+00  2.76660961E-02
  4.44315929E-02 -4.30309058E-01  0.00000000E+00  2.22227634E-14 -9.99576989E-01
  3.60881196E-01  0.00000000E+00 -3.08487028E-14  1.10113195E+00 -4.21309638E-02
 -4.21309638E-02  1.16317024E-01  0.00000000E+00  0.00000000E+00 -1.50698901E-16
  6.64691111E-02  2.59316938E-02  6.64691111E-02  2.59316938E-02  6.64691111E-02
  2.59316938E-02 -4.60841643E-03  2.16789770E-01  0.00000000E+00  1.01750278E-15
 -3.48172507E-01 -7.07824104E-01  0.00000000E+00  2.48529984E-15  2.44449346E-02
  1.21680275E-01  1.21680275E-01 -9.41819165E-02  0.00000000E+00  0.00000000E+00
 -1.34653154E-15 -1.10126634E-01 -8.27946769E-01  0.00000000E+00 -9.60122078E-13
  5.27104088E-02  2.67420912E+00  0.00000000E+00  1.33286372E-12 -4.57629249E-01
 -1.26698363E-01 -1.26698363E-01  7.42719180E-02  0.00000000E+00  0.00000000E+00
 -1.56363632E-13 -5.70285477E-01 -4.25799967E-01 -5.70285477E-01 -4.25799967E-01
 -5.70285477E-01 -4.25799967E-01 -2.32004088E-02 -8.30792100E-01  0.00000000E+00
  1.12035197E-13 -8.99018937E-02  1.26068023E+00  0.00000000E+00 -1.23893075E-13
  2.97048695E-01 -3.48899930E-01 -3.48899930E-01 -4.52783309E-01  0.00000000E+00
  0.00000000E+00  1.20883367E-13  0.00000000E+00  0.00000000E+00  8.61739801E-01
  0.00000000E+00  0.00000000E+00  0.00000000E+00 -1.24603815E+00  0.00000000E+00
  0.00000000E+00  0.00000000E+00  0.00000000E+00  0.00000000E+00  1.72338326E-01
  1.43808829E-01  0.00000000E+00  0.00000000E+00  0.00000000E+00 -6.91445574E-01
  1.33634855E+00  6.91445574E-01 -1.33634855E+00  0.00000000E+00  0.00000000E+00
 -9.59895184E-02  0.00000000E+00  0.00000000E+00  0.00000000E+00  1.14032209E-01
  0.00000000E+00  0.00000000E+00  0.00000000E+00  0.00000000E+00  0.00000000E+00
 -4.55275781E-03 -1.09796570E-01  0.00000000E+00 -1.29280593E-13 -5.84494611E-13
  0.00000000E+00  8.61739801E-01 -1.05324846E-14  2.32982545E-12  0.00000000E+00
 -1.24603815E+00 -4.10624485E-13  1.49249369E-01 -1.49249369E-01  1.12062197E-13
  0.00000000E+00  0.00000000E+00  1.43808829E-01 -7.98412576E-01  1.54308239E+00
  3.99206288E-01 -7.71541197E-01  3.99206288E-01 -7.71541197E-01 -2.15212854E-14
 -8.98716051E-13  0.00000000E+00 -9.59895184E-02 -8.53540484E-14  1.36998277E-12
  0.00000000E+00  1.14032209E-01  3.21464799E-13 -3.94280392E-03  3.94280392E-03
 -4.75803588E-13  0.00000000E+00  0.00000000E+00 -1.09796570E-01  1.34114153E-02
 -1.69068194E+00  0.00000000E+00  1.70001357E-13  4.54391738E-01  3.79188073E+00
  0.00000000E+00 -3.04897992E-13 -6.10647162E-01 -5.74112001E-02 -5.74112001E-02
 -1.41994199E-01  0.00000000E+00  0.00000000E+00  2.77681150E-14  4.14643969E-01
 -1.19907211E+00  4.14643969E-01 -1.19907211E+00  4.14643969E-01 -1.19907211E+00
 -1.42662789E-03 -5.39167517E-02  0.00000000E+00 -7.83656048E-15 -8.20544013E-02
 -1.30213138E-01  0.00000000E+00  2.19994146E-14  1.37886794E-01 -3.04137741E-03
 -3.04137741E-03 -8.23582889E-02  0.00000000E+00  0.00000000E+00 -2.22923455E-14
  7.71069277E-02  6.56815094E-01  0.00000000E+00 -4.55964170E-15  1.66343451E-01
 -1.81482003E+00  0.00000000E+00  1.29059295E-14 -9.72122774E-02 -1.31450881E-02
 -1.31450881E-02  2.60140620E-01  0.00000000E+00  0.00000000E+00  4.10684997E-15
  2.79827279E-01  2.67676175E-01  2.79827279E-01  2.67676175E-01  2.79827279E-01
  2.67676175E-01 -7.47877912E-02 -1.06754420E+00  0.00000000E+00  1.78412629E-15
 -6.70052121E-01  2.44432107E+00  0.00000000E+00 -4.37312465E-15  7.18278226E-01
 -5.67424883E-01 -5.67424883E-01 -4.62093945E-01  0.00000000E+00  0.00000000E+00
 -8.08986133E-16  0.00000000E+00  0.00000000E+00 -2.54516111E-02  0.00000000E+00
  0.00000000E+00  0.00000000E+00 -4.47197031E-01  0.00000000E+00  0.00000000E+00
  0.00000000E+00  0.00000000E+00  0.00000000E+00 -2.48447540E-01  2.02550022E-01
  0.00000000E+00  0.00000000E+00  0.00000000E+00  1.00000931E-01  1.02103241E-01
 -1.00000931E-01 -1.02103241E-01  0.00000000E+00  0.00000000E+00 -8.83002237E-01
  0.00000000E+00  0.00000000E+00  0.00000000E+00  1.05009041E+00  0.00000000E+00
  0.00000000E+00  0.00000000E+00  0.00000000E+00  0.00000000E+00 -6.18826658E-02
 -2.15790886E-02  0.00000000E+00 -4.49480311E-16 -5.76020854E-15  0.00000000E+00
 -2.54516111E-02 -4.12671010E-16  2.39314945E-14  0.00000000E+00 -4.47197031E-01
  3.48088130E-15 -2.15161881E-01  2.15161881E-01 -1.64731408E-15  0.00000000E+00
  0.00000000E+00  2.02550022E-01  1.15471129E-01  1.17898667E-01 -5.77355645E-02
 -5.89493336E-02 -5.77355645E-02 -5.89493336E-02  5.16320446E-16  1.05556706E-14
  0.00000000E+00 -8.83002237E-01 -2.41018702E-15 -2.45778034E-14  0.00000000E+00
  1.05009041E+00  3.92788533E-15 -5.35919607E-02  5.35919607E-02  3.45830996E-15
  0.00000000E+00  0.00000000E+00 -2.15790886E-02  0.00000000E+00  0.00000000E+00
 -2.13151027E-01  0.00000000E+00  0.00000000E+00  0.00000000E+00  3.46037024E-01
  0.00000000E+00  0.00000000E+00  0.00000000E+00  0.00000000E+00  0.00000000E+00
 -3.32215765E-01  5.92458112E-01  0.00000000E+00  0.00000000E+00  0.00000000E+00
  9.26191319E-02 -2.27499552E-01 -9.26191319E-02  2.27499552E-01  0.00000000E+00
  0.00000000E+00  2.63185796E-01  0.00000000E+00  0.00000000E+00  0.00000000E+00
 -4.85966552E-01  0.00000000E+00  0.00000000E+00  0.00000000E+00  0.00000000E+00
  0.00000000E+00 -9.90147516E-02 -5.22521803E-01  0.00000000E+00  7.17510510E-16
  1.26701431E-14  0.00000000E+00 -2.13151027E-01 -8.86556892E-15 -5.20358645E-14
  0.00000000E+00  3.46037024E-01  5.76043899E-15 -2.87707292E-01  2.87707292E-01
 -6.97551211E-15  0.00000000E+00  0.00000000E+00  5.92458112E-01  1.06947361E-01
 -2.62693856E-01 -5.34736807E-02  1.31346928E-01 -5.34736807E-02  1.31346928E-01
 -1.37780482E-15  6.02809297E-15  0.00000000E+00  2.63185796E-01  6.69157403E-15
  5.75407951E-15  0.00000000E+00 -4.85966552E-01 -1.68981395E-14 -8.57492902E-02
  8.57492902E-02 -8.99468147E-16  0.00000000E+00  0.00000000E+00 -5.22521803E-01
  5.13378925E-02  7.54853244E-01  0.00000000E+00  1.08175781E-14 -9.74222298E-02
 -2.91110999E+00  0.00000000E+00  5.10834065E-14 -8.40184854E-01  1.19867810E-01
  1.19867810E-01 -2.55386023E-01  0.00000000E+00  0.00000000E+00 -2.54443599E-14
  2.04705733E-01  3.58641424E-01  2.04705733E-01  3.58641424E-01  2.04705733E-01
  3.58641424E-01 -1.14867928E-01 -1.70947229E+00  0.00000000E+00  1.09448242E-14
  3.75609385E-01  4.22748176E+00  0.00000000E+00 -1.81450808E-14 -1.18683700E+00
 -3.79646705E-01 -3.79646705E-01 -1.13153224E+00  0.00000000E+00  0.00000000E+00
  2.99095875E-14  0.00000000E+00  0.00000000E+00 -5.88955085E-02  0.00000000E+00
  0.00000000E+00  0.00000000E+00 -3.59143958E-01  0.00000000E+00  0.00000000E+00
  0.00000000E+00  0.00000000E+00  0.00000000E+00  2.55755076E-01  1.70228754E-01
  0.00000000E+00  0.00000000E+00  0.00000000E+00  2.41312078E-01  1.15857568E-01
 -2.41312078E-01 -1.15857568E-01  0.00000000E+00  0.00000000E+00 -8.50237898E-02
  0.00000000E+00  0.00000000E+00  0.00000000E+00  1.42251283E-01  0.00000000E+00
  0.00000000E+00  0.00000000E+00  0.00000000E+00  0.00000000E+00  9.26541266E-01
 -1.48383766E-01  0.00000000E+00  1.04751588E-14  1.58302701E-13  0.00000000E+00
 -5.88955085E-02 -1.03853295E-14 -5.62663464E-13  0.00000000E+00 -3.59143958E-01
 -1.50799945E-13  2.21490393E-01 -2.21490393E-01 -4.19335939E-14  0.00000000E+00
  0.00000000E+00  1.70228754E-01  2.78643187E-01  1.33780796E-01 -1.39321593E-01
 -6.68903980E-02 -1.39321593E-01 -6.68903980E-02 -1.72304303E-14 -3.14801619E-13
  0.00000000E+00 -8.50237898E-02  5.76457450E-14  7.51352600E-13  0.00000000E+00
  1.42251283E-01 -1.98577010E-13  8.02408274E-01 -8.02408274E-01 -2.04811119E-13
  0.00000000E+00  0.00000000E+00 -1.48383766E-01  3.21619581E-03 -8.98614729E-02
  0.00000000E+00 -2.19682215E-15 -1.04208322E-01 -2.43633586E-01  0.00000000E+00
  2.26097416E-14  3.35543660E-01 -5.26153038E-01 -5.26153038E-01  9.11613581E-01
  0.00000000E+00  0.00000000E+00 -1.08899959E-15  3.07419198E-01  1.37990768E-03
  3.07419198E-01  1.37990768E-03  3.07419198E-01  1.37990768E-03  3.02679722E-02
 -3.94601320E-01  0.00000000E+00  1.53677853E-15  5.12701894E-01  2.35309008E-01
  0.00000000E+00 -5.45699897E-15 -3.29896019E-01 -1.32982789E-01 -1.32982789E-01
  7.30893259E-02  0.00000000E+00  0.00000000E+00  1.95339341E-15  0.00000000E+00
  0.00000000E+00 -2.06753438E-01  0.00000000E+00  0.00000000E+00  0.00000000E+00
 -6.08106184E-01  0.00000000E+00  0.00000000E+00  0.00000000E+00  0.00000000E+00
  0.00000000E+00  9.46252914E-01  4.25143965E-02  0.00000000E+00  0.00000000E+00
  0.00000000E+00  6.13220379E-01  9.03866923E-03 -6.13220379E-01 -9.03866923E-03
  0.00000000E+00  0.00000000E+00 -1.71408751E-01  0.00000000E+00  0.00000000E+00
  0.00000000E+00  3.61239260E-01  0.00000000E+00  0.00000000E+00  0.00000000E+00
  0.00000000E+00  0.00000000E+00 -3.57839155E-01 -4.26745372E-01  0.00000000E+00
  2.76209798E-15 -6.62984440E-14  0.00000000E+00 -2.06753438E-01 -6.84971768E-15