hf/6-31G* opted                                                         
FOpt      RHF                                                         6-31G(d)            
Number of atoms                            I                7
Info1-9                                    I   N=           9
          15          14           0           0           0         110
           2           1           2
Charge                                     I                0
Multiplicity                               I                1
Number of electrons                        I               18
Number of alpha electrons                  I                9
Number of beta electrons                   I                9
Number of basis functions                  I               40
Number of independent functions            I               40
Number of point charges in /Mol/           I                0
Number of translation vectors              I                0
Atomic numbers                             I   N=           7
           6           1           1           1           7           1
           1
Nuclear charges                            R   N=           7
  6.00000000E+00  1.00000000E+00  1.00000000E+00  1.00000000E+00  7.00000000E+00
  1.00000000E+00  1.00000000E+00
Current cartesian coordinates              R   N=          21
  9.29919455E-02  1.32444286E+00 -6.66518846E-17  1.10031261E+00  1.99806602E+00
  1.65148753E+00  1.10031261E+00  1.99806602E+00 -1.65148753E+00 -1.77879028E+00
  2.18857844E+00 -1.05365828E-16  9.29919455E-02 -1.42184858E+00  7.10774976E-17
 -8.15365114E-01 -2.08921377E+00  1.52016670E+00 -8.15365114E-01 -2.08921377E+00
 -1.52016670E+00
Force Field                                I                0
Int Atom Types                             I   N=           7
           0           0           0           0           0           0
           0
MM charges                                 R   N=           7
  0.00000000E+00  0.00000000E+00  0.00000000E+00  0.00000000E+00  0.00000000E+00
  0.00000000E+00  0.00000000E+00
Integer atomic weights                     I   N=           7
          12           1           1           1          14           1
           1
Real atomic weights                        R   N=           7
  1.20000000E+01  1.00782504E+00  1.00782504E+00  1.00782504E+00  1.40030740E+01
  1.00782504E+00  1.00782504E+00
Atom fragment info                         I   N=           7
           0           0           0           0           0           0
           0
Atom residue num                           I   N=           7
           0           0           0           0           0           0
           0
Nuclear spins                              I   N=           7
           0           1           1           1           2           1
           1
Nuclear ZEff                               R   N=           7
 -3.60000000E+00 -1.00000000E+00 -1.00000000E+00 -1.00000000E+00 -4.55000000E+00
 -1.00000000E+00 -1.00000000E+00
Nuclear ZNuc                               R   N=           7
  6.00000000E+00  1.00000000E+00  1.00000000E+00  1.00000000E+00  7.00000000E+00
  1.00000000E+00  1.00000000E+00
Nuclear QMom                               R   N=           7
  0.00000000E+00  0.00000000E+00  0.00000000E+00  0.00000000E+00  2.04400000E+00
  0.00000000E+00  0.00000000E+00
Nuclear GFac                               R   N=           7
  0.00000000E+00  2.79284600E+00  2.79284600E+00  2.79284600E+00  4.03761000E-01
  2.79284600E+00  2.79284600E+00
MicOpt                                     I   N=           7
          -1          -1          -1          -1          -1          -1
          -1
Number of contracted shells                I               18
Number of primitive shells                 I               42
Pure/Cartesian d shells                    I                1
Pure/Cartesian f shells                    I                0
Highest angular momentum                   I                2
Largest degree of contraction              I                6
Shell types                                I   N=          18
           0          -1          -1           2           0           0
           0           0           0           0           0          -1
          -1           2           0           0           0           0
Number of primitives per shell             I   N=          18
           6           3           1           1           3           1
           3           1           3           1           6           3
           1           1           3           1           3           1
Shell to atom map                          I   N=          18
           1           1           1           1           2           2
           3           3           4           4           5           5
           5           5           6           6           7           7
Primitive exponents                        R   N=          42
  3.04752488E+03  4.57369518E+02  1.03948685E+02  2.92101553E+01  9.28666296E+00
  3.16392696E+00  7.86827235E+00  1.88128854E+00  5.44249258E-01  1.68714478E-01
  8.00000000E-01  1.87311370E+01  2.82539436E+00  6.40121692E-01  1.61277759E-01
  1.87311370E+01  2.82539436E+00  6.40121692E-01  1.61277759E-01  1.87311370E+01
  2.82539436E+00  6.40121692E-01  1.61277759E-01  4.17351146E+03  6.27457911E+02
  1.42902093E+02  4.02343293E+01  1.28202129E+01  4.39043701E+00  1.16263619E+01
  2.71627981E+00  7.72218397E-01  2.12031498E-01  8.00000000E-01  1.87311370E+01
  2.82539436E+00  6.40121692E-01  1.61277759E-01  1.87311370E+01  2.82539436E+00
  6.40121692E-01  1.61277759E-01
Contraction coefficients                   R   N=          42
  1.83473713E-03  1.40373228E-02  6.88426223E-02  2.32184443E-01  4.67941348E-01
  3.62311985E-01 -1.19332420E-01 -1.60854152E-01  1.14345644E+00  1.00000000E+00
  1.00000000E+00  3.34946043E-02  2.34726953E-01  8.13757326E-01  1.00000000E+00
  3.34946043E-02  2.34726953E-01  8.13757326E-01  1.00000000E+00  3.34946043E-02
  2.34726953E-01  8.13757326E-01  1.00000000E+00  1.83477216E-03  1.39946270E-02
  6.85865518E-02  2.32240873E-01  4.69069948E-01  3.60455199E-01 -1.14961182E-01
 -1.69117479E-01  1.14585195E+00  1.00000000E+00  1.00000000E+00  3.34946043E-02
  2.34726953E-01  8.13757326E-01  1.00000000E+00  3.34946043E-02  2.34726953E-01
  8.13757326E-01  1.00000000E+00
P(S=P) Contraction coefficients            R   N=          42
  0.00000000E+00  0.00000000E+00  0.00000000E+00  0.00000000E+00  0.00000000E+00
  0.00000000E+00  6.89990666E-02  3.16423961E-01  7.44308291E-01  1.00000000E+00
  0.00000000E+00  0.00000000E+00  0.00000000E+00  0.00000000E+00  0.00000000E+00
  0.00000000E+00  0.00000000E+00  0.00000000E+00  0.00000000E+00  0.00000000E+00
  0.00000000E+00  0.00000000E+00  0.00000000E+00  0.00000000E+00  0.00000000E+00
  0.00000000E+00  0.00000000E+00  0.00000000E+00  0.00000000E+00  6.75797439E-02
  3.23907296E-01  7.40895140E-01  1.00000000E+00  0.00000000E+00  0.00000000E+00
  0.00000000E+00  0.00000000E+00  0.00000000E+00  0.00000000E+00  0.00000000E+00
  0.00000000E+00  0.00000000E+00
Coordinates of each shell                  R   N=          54
  9.29919455E-02  1.32444286E+00 -6.23975639E-17  9.29919455E-02  1.32444286E+00
 -6.23975639E-17  9.29919455E-02  1.32444286E+00 -6.23975639E-17  9.29919455E-02
  1.32444286E+00 -6.23975639E-17  1.10031261E+00  1.99806602E+00  1.65148753E+00
  1.10031261E+00  1.99806602E+00  1.65148753E+00  1.10031261E+00  1.99806602E+00
 -1.65148753E+00  1.10031261E+00  1.99806602E+00 -1.65148753E+00 -1.77879028E+00
  2.18857844E+00 -1.07415515E-16 -1.77879028E+00  2.18857844E+00 -1.07415515E-16
  9.29919455E-02 -1.42184858E+00  6.74162838E-17  9.29919455E-02 -1.42184858E+00
  6.74162838E-17  9.29919455E-02 -1.42184858E+00  6.74162838E-17  9.29919455E-02
 -1.42184858E+00  6.74162838E-17 -8.15365114E-01 -2.08921377E+00  1.52016670E+00
 -8.15365114E-01 -2.08921377E+00  1.52016670E+00 -8.15365114E-01 -2.08921377E+00
 -1.52016670E+00 -8.15365114E-01 -2.08921377E+00 -1.52016670E+00
Constraint Structure                       R   N=          21
  9.75010497E-02  1.33002316E+00  3.05956946E-17  1.12325006E+00  2.00706668E+00
  1.66609594E+00  1.12325006E+00  2.00706668E+00 -1.66609594E+00 -1.78188072E+00
  2.23840507E+00  5.00626241E-17  9.75010497E-02 -1.43767351E+00 -3.29230385E-17
 -8.66066526E-01 -2.08448141E+00  1.53556878E+00 -8.66066526E-01 -2.08448141E+00
 -1.53556878E+00
Num ILSW                                   I              100
ILSW                                       I   N=         100
           0           1           0           0           2           0
           0           0           0           0           0          -1
           0           0           0           0           2           0
           0           0           0           0           1           0
           1           0           0           0           0           0
           0           0      100000           0          -1           0
           0           0           0           0           0           0
           0           0           0           1           0           0
           0           0           1           0           0           0
           0           0           4          41           0           0
           0           0           0           0           0           0
           0           0           0           7           0           0
           0           0           0           0           0           0
           0           0           0           0           0           0
           0           0           0           0           0           0
           0           0           0           0           0           0
           0           0           0           0
Num RLSW                                   I               41
RLSW                                       R   N=          41
  1.00000000E+00  1.00000000E+00  1.00000000E+00  1.00000000E+00  1.00000000E+00
  0.00000000E+00  0.00000000E+00  1.00000000E+00  0.00000000E+00  0.00000000E+00
  0.00000000E+00  0.00000000E+00  1.00000000E+00  0.00000000E+00  0.00000000E+00
  0.00000000E+00  0.00000000E+00  1.00000000E+00  0.00000000E+00  0.00000000E+00
  0.00000000E+00  0.00000000E+00  1.00000000E+00  0.00000000E+00  0.00000000E+00
  0.00000000E+00  0.00000000E+00  1.00000000E+00  0.00000000E+00  0.00000000E+00
  0.00000000E+00  0.00000000E+00  1.00000000E+00  0.00000000E+00  0.00000000E+00
  0.00000000E+00  0.00000000E+00  0.00000000E+00  1.00000000E+00  1.00000000E+00
  0.00000000E+00
MxBond                                     I                4
NBond                                      I   N=           7
           4           1           1           1           3           1
           1
IBond                                      I   N=          28
           2           3           4           5           1           0
           0           0           1           0           0           0
           1           0           0           0           1           6
           7           0           5           0           0           0
           5           0           0           0
RBond                                      R   N=          28
  1.00000000E+00  1.00000000E+00  1.00000000E+00  1.00000000E+00  1.00000000E+00
  0.00000000E+00  0.00000000E+00  0.00000000E+00  1.00000000E+00  0.00000000E+00
  0.00000000E+00  0.00000000E+00  1.00000000E+00  0.00000000E+00  0.00000000E+00
  0.00000000E+00  1.00000000E+00  1.00000000E+00  1.00000000E+00  0.00000000E+00
  1.00000000E+00  0.00000000E+00  0.00000000E+00  0.00000000E+00  1.00000000E+00
  0.00000000E+00  0.00000000E+00  0.00000000E+00
Virial Ratio                               R      2.001115894289253E+00
SCF Energy                                 R     -9.520982856421460E+01
Total Energy                               R     -9.520982856421460E+01
RMS Force                                  R      5.315056102126555E-05
RMS Density                                R      6.507997603566279E-09
External E-field                           R   N=          35
  0.00000000E+00  0.00000000E+00  0.00000000E+00  0.00000000E+00  0.00000000E+00
  0.00000000E+00  0.00000000E+00  0.00000000E+00  0.00000000E+00  0.00000000E+00
  0.00000000E+00  0.00000000E+00  0.00000000E+00  0.00000000E+00  0.00000000E+00
  0.00000000E+00  0.00000000E+00  0.00000000E+00  0.00000000E+00  0.00000000E+00
  0.00000000E+00  0.00000000E+00  0.00000000E+00  0.00000000E+00  0.00000000E+00
  0.00000000E+00  0.00000000E+00  0.00000000E+00  0.00000000E+00  0.00000000E+00
  0.00000000E+00  0.00000000E+00  0.00000000E+00  0.00000000E+00  0.00000000E+00
IOpCl                                      I                0
IROHF                                      I                0
Alpha Orbital Energies                     R   N=          40
 -1.55348636E+01 -1.12374714E+01 -1.17092853E+00 -8.96555019E-01 -6.64661004E-01
 -6.02947408E-01 -5.57037301E-01 -5.17523608E-01 -3.83828223E-01  2.29056953E-01
  2.88073453E-01  3.08737876E-01  3.32227530E-01  3.37960001E-01  4.20607396E-01
  7.65906569E-01  7.78641882E-01  7.91436496E-01  9.73764029E-01  9.99168691E-01
  1.05339642E+00  1.14004270E+00  1.19681835E+00  1.21821073E+00  1.23532811E+00
  1.25617891E+00  1.28357252E+00  1.62753642E+00  1.81132056E+00  1.82526417E+00
  2.21165992E+00  2.37375569E+00  2.37623293E+00  2.52809204E+00  2.66813135E+00
  2.71391120E+00  2.82460924E+00  3.01721000E+00  4.19262540E+00  4.67535584E+00
Alpha MO coefficients                      R   N=        1600
 -1.31892823E-05  2.15179913E-04 -1.56475481E-06 -2.45760559E-04  0.00000000E+00
  1.42033053E-03 -2.40677387E-04 -4.37568005E-04  0.00000000E+00 -5.98131021E-05
 -2.05217187E-04 -1.04462315E-04  1.29841844E-05  0.00000000E+00  0.00000000E+00
 -6.56654553E-05 -1.05539717E-04 -6.56654553E-05 -1.05539717E-04 -1.31352175E-04
 -1.84257935E-04  9.94996885E-01  2.49322233E-02 -1.37709015E-03  5.13116268E-04
  0.00000000E+00 -2.28739098E-03  9.37038786E-04 -6.08402128E-04  0.00000000E+00
 -3.23288838E-03 -3.47502224E-03 -3.42533154E-03 -4.11445559E-05  0.00000000E+00
  0.00000000E+00  2.72908158E-04  5.64925920E-04  2.72908158E-04  5.64925920E-04
  9.95725956E-01  2.80297614E-02 -5.87792363E-06 -3.38324051E-04  0.00000000E+00
 -1.37274895E-02 -1.69873903E-04  5.42793983E-05  0.00000000E+00 -1.86046918E-03
 -1.80687601E-03 -1.84086767E-03  1.13355534E-06  0.00000000E+00  0.00000000E+00
  1.24582151E-04  2.63729601E-03  1.24582151E-04  2.63729601E-03  9.67655622E-05
  2.52375833E-03 -2.14715409E-04  9.15411786E-05 -2.89011937E-05 -3.13869294E-05
  0.00000000E+00  2.39673315E-03  9.59659122E-05  9.37575522E-04  0.00000000E+00
 -7.79770578E-05 -6.40192105E-04 -9.33934588E-05 -1.83387128E-05  0.00000000E+00
  0.00000000E+00 -5.43527729E-05  2.42626101E-04 -5.43527729E-05  2.42626101E-04
 -9.52089474E-02  1.77376557E-01 -4.02606616E-03 -9.37777725E-02  0.00000000E+00
  1.04846051E-01 -3.28670669E-03 -2.70250051E-03  0.00000000E+00 -2.87686130E-03
  2.13848095E-02 -1.85735779E-03  1.52389121E-03  0.00000000E+00  0.00000000E+00
  4.27421350E-02  6.97437467E-03  4.27421350E-02  6.97437467E-03  4.17672950E-02
  3.22823567E-03 -1.82468774E-01  3.78245804E-01 -6.63975135E-02  4.31654850E-02
  0.00000000E+00  3.84986689E-01 -3.72716474E-02  1.83759407E-02  0.00000000E+00
  2.27434446E-04  9.43586324E-03  1.36570475E-02  5.72006636E-03  0.00000000E+00
  0.00000000E+00  1.19158980E-01  4.01064688E-03  1.19158980E-01  4.01064688E-03
 -1.66818336E-01  3.18256483E-01  1.59165150E-02  8.98052958E-02  0.00000000E+00
  3.30832630E-01 -6.07512601E-03  3.56692603E-02  0.00000000E+00  1.20385804E-02
 -6.85954824E-03  1.37671116E-02 -2.12619171E-03  0.00000000E+00  0.00000000E+00
  1.37815631E-01  4.36547675E-02  1.37815631E-01  4.36547675E-02  1.30680550E-01
  3.59963502E-02  7.57253106E-02 -1.57321205E-01  7.12975447E-02  1.56777290E-01
  0.00000000E+00 -2.17365280E-01  3.97358897E-02  6.61058428E-02  0.00000000E+00
 -5.98317659E-03  1.65129526E-02 -1.40823555E-02 -1.02472178E-02  0.00000000E+00
  0.00000000E+00 -9.98585718E-02 -2.39552902E-02 -9.98585718E-02 -2.39552902E-02
  0.00000000E+00  0.00000000E+00  0.00000000E+00  0.00000000E+00  2.23983516E-01
  0.00000000E+00  0.00000000E+00  0.00000000E+00  1.07101558E-01  0.00000000E+00
  0.00000000E+00  0.00000000E+00  0.00000000E+00  1.24622223E-02 -2.80767352E-03
  1.01851428E-01  5.78006793E-02 -1.01851428E-01 -5.78006793E-02  0.00000000E+00
  0.00000000E+00  0.00000000E+00  0.00000000E+00  0.00000000E+00  0.00000000E+00
  4.09264917E-01  0.00000000E+00  0.00000000E+00  0.00000000E+00  2.28728060E-01
  0.00000000E+00  0.00000000E+00  0.00000000E+00  0.00000000E+00 -3.58431538E-02
 -6.48877579E-03  1.99812407E-01  1.04399667E-01 -1.99812407E-01 -1.04399667E-01
  5.94210082E-03 -4.22317154E-03  2.89990919E-01 -2.46812611E-01  0.00000000E+00
 -3.95394219E-02  1.24941643E-01 -9.13372545E-02  0.00000000E+00 -2.61149321E-02
  1.89090009E-02  4.57117471E-03  8.89542912E-03  0.00000000E+00  0.00000000E+00
  3.05279029E-02  2.53809799E-02  3.05279029E-02  2.53809799E-02 -2.28923471E-01
 -1.82435554E-01 -2.94620430E-02  6.92077154E-02  2.41509330E-01  2.28012861E-01
  0.00000000E+00  1.01859074E-01  1.54131715E-01  1.27104133E-01  0.00000000E+00
 -1.63823140E-02  1.80908120E-02 -7.38950252E-03 -3.27293688E-03  0.00000000E+00
  0.00000000E+00 -9.21927435E-02 -5.57739863E-02 -9.21927435E-02 -5.57739863E-02
 -5.87108737E-03  1.65112750E-02 -2.90171847E-01 -2.82378550E-01  0.00000000E+00
 -2.54493129E-02 -1.56403342E-01 -1.13883527E-01  0.00000000E+00  6.55001137E-04
  2.53448981E-02 -2.98398398E-02 -1.28527688E-02  0.00000000E+00  0.00000000E+00
 -1.48561690E-01 -1.17795038E-01 -1.48561690E-01 -1.17795038E-01  1.04041378E-01
  8.65348023E-02  1.90041184E-03 -6.98396919E-03 -3.85109946E-02  3.43545944E-01
  0.00000000E+00  4.04588733E-03 -2.64604451E-02  2.23205743E-01  0.00000000E+00
 -4.23309033E-03  1.55345135E-02 -1.60864965E-02 -2.27918503E-02  0.00000000E+00
  0.00000000E+00 -7.58954902E-02 -5.75127902E-02 -7.58954902E-02 -5.75127902E-02
  0.00000000E+00  0.00000000E+00  0.00000000E+00  0.00000000E+00  3.86517809E-01
  0.00000000E+00  0.00000000E+00  0.00000000E+00  2.13159065E-01  0.00000000E+00
  0.00000000E+00  0.00000000E+00  0.00000000E+00  2.87496197E-02  2.67494902E-02
  2.17674890E-01  1.89881308E-01 -2.17674890E-01 -1.89881308E-01  0.00000000E+00
  0.00000000E+00  0.00000000E+00  0.00000000E+00  0.00000000E+00  0.00000000E+00
 -2.39741854E-01  0.00000000E+00  0.00000000E+00  0.00000000E+00 -1.65786975E-01
  0.00000000E+00  0.00000000E+00  0.00000000E+00  0.00000000E+00  2.49909490E-02
  1.81684222E-02 -1.37295613E-01 -1.06495810E-01  1.37295613E-01  1.06495810E-01
  1.02804228E-02 -2.52591394E-02 -1.64507702E-01  7.95671455E-02  0.00000000E+00
  1.00992588E-02 -8.56966457E-02  1.86932378E-02  0.00000000E+00  1.36433372E-02
 -8.00175839E-04 -1.17770241E-02 -3.30425430E-02  0.00000000E+00  0.00000000E+00
 -6.76509947E-02 -7.44172978E-02 -6.76509947E-02 -7.44172978E-02  1.59159957E-01
  1.96171183E-01 -5.26969726E-02  1.25156335E-01  4.97833278E-01 -1.64423093E-01
  0.00000000E+00  2.24481370E-01  4.54848649E-01 -1.64310130E-01  0.00000000E+00
 -2.20287557E-02  4.43346434E-03  6.61596859E-03  5.92548121E-03  0.00000000E+00
  0.00000000E+00 -6.25278798E-02 -4.96413677E-02 -6.25278798E-02 -4.96413677E-02
 -5.86568166E-02  3.70326392E-02 -1.66441520E-02  1.32797478E-01  0.00000000E+00
  1.08319193E+00  8.56386579E-02  5.73914484E-01  0.00000000E+00 -9.26886508E-03
  2.97528483E-03 -1.27440799E-02  3.22098291E-03  0.00000000E+00  0.00000000E+00
  7.35976703E-04 -5.82382574E-01  7.35976703E-04 -5.82382574E-01  7.22443460E-03
 -6.06421428E-01 -1.00424529E-01  8.67009955E-02 -1.23148669E-01 -6.58842876E-02
  0.00000000E+00  1.61138489E+00 -4.55076425E-01 -2.14216801E-01  0.00000000E+00
 -2.95635302E-02 -2.92280699E-02 -2.90026783E-02  5.54745900E-03  0.00000000E+00
  0.00000000E+00 -2.29458717E-02 -1.01110838E+00 -2.29458717E-02 -1.01110838E+00
 -1.40083649E-01  9.39883013E-02  9.09536771E-03  6.12429298E-02  0.00000000E+00
  2.63054039E+00  2.92571745E-02  1.05591725E-01  0.00000000E+00 -8.03297216E-03
 -1.16745610E-02 -3.89409847E-03 -2.98167908E-03  0.00000000E+00  0.00000000E+00
  2.45021071E-03 -1.11266776E+00  2.45021071E-03 -1.11266776E+00  5.22013336E-03
 -1.05575964E+00  7.69923564E-02 -4.26544548E-02  8.68443561E-02 -1.72226627E-02
  0.00000000E+00 -1.36621025E+00  2.77576876E-01 -2.19230626E-01  0.00000000E+00
  2.22454389E-02  3.14881876E-02  2.26807231E-02  1.18740721E-03  0.00000000E+00
  0.00000000E+00  2.22670937E-02  6.37954311E-01  2.22670937E-02  6.37954311E-01
  0.00000000E+00  0.00000000E+00  0.00000000E+00  0.00000000E+00 -2.28396117E-01
  0.00000000E+00  0.00000000E+00  0.00000000E+00 -7.66947779E-01  0.00000000E+00
  0.00000000E+00  0.00000000E+00  0.00000000E+00  2.01309042E-03  1.35004077E-02
  2.94882311E-02  9.79773557E-01 -2.94882311E-02 -9.79773557E-01  0.00000000E+00
  0.00000000E+00  0.00000000E+00  0.00000000E+00  0.00000000E+00  0.00000000E+00
 -2.48483413E-01  0.00000000E+00  0.00000000E+00  0.00000000E+00 -7.81513689E-01
  0.00000000E+00  0.00000000E+00  0.00000000E+00  0.00000000E+00  1.19818759E-02
 -1.71609075E-02  4.24964759E-02  1.22484232E+00 -4.24964759E-02 -1.22484232E+00
  6.30228745E-03  2.33141658E-03  3.49762058E-01 -3.84039578E-03  0.00000000E+00
 -9.10329367E-02  1.54476970E+00  6.23526055E-02  0.00000000E+00  7.73266639E-03
  5.56453887E-03 -1.05856817E-02 -1.77875317E-03  0.00000000E+00  0.00000000E+00
 -2.01484521E-02 -9.84182682E-01 -2.01484521E-02 -9.84182682E-01  3.75553652E-02
  1.91365628E+00 -2.23174073E-03 -6.19551458E-03 -3.72370394E-02  5.69469557E-02
  0.00000000E+00  6.90776013E-02 -2.96104339E-01  1.05084235E-01  0.00000000E+00
  9.73457164E-03 -2.22393645E-03 -7.90687911E-03  1.32163507E-02  0.00000000E+00
  0.00000000E+00  1.03463953E-02  2.98873801E-02  1.03463953E-02  2.98873801E-02
  0.00000000E+00  0.00000000E+00  0.00000000E+00  0.00000000E+00  2.29919628E-01
  0.00000000E+00  0.00000000E+00  0.00000000E+00  1.38882954E+00  0.00000000E+00
  0.00000000E+00  0.00000000E+00  0.00000000E+00 -1.58753162E-02  4.65546271E-03
 -4.68086191E-02 -1.37073615E+00  4.68086191E-02  1.37073615E+00  0.00000000E+00
  0.00000000E+00  0.00000000E+00  0.00000000E+00  0.00000000E+00  0.00000000E+00
 -2.08778417E-01  0.00000000E+00  0.00000000E+00  0.00000000E+00 -9.28880165E-01
  0.00000000E+00  0.00000000E+00  0.00000000E+00  0.00000000E+00  7.81340551E-03
  1.12156721E-02  4.11598602E-03  9.57460600E-01 -4.11598602E-03 -9.57460600E-01
  5.95739275E-02 -2.46633628E-02 -1.27370166E-02  1.89281912E-01  0.00000000E+00
 -1.20106246E+00 -2.11951493E-01  1.94472701E+00  0.00000000E+00 -1.96610380E-02
  2.38628897E-02 -1.60376520E-02 -5.82865935E-03  0.00000000E+00  0.00000000E+00
 -6.90637963E-02 -8.74479696E-02 -6.90637963E-02 -8.74479696E-02 -5.55212557E-02
 -5.00717793E-01 -4.82995870E-02  4.24623772E-02  9.23072947E-02  3.21650503E-01
  0.00000000E+00  1.01003791E+00  3.12170774E-01  1.45886962E+00  0.00000000E+00
 -2.02774392E-02  7.06370240E-03 -8.77256480E-04 -1.14068313E-02  0.00000000E+00
  0.00000000E+00  1.93146205E-02  6.53885351E-01  1.93146205E-02  6.53885351E-01
  0.00000000E+00  0.00000000E+00  0.00000000E+00  0.00000000E+00 -6.68972226E-01
  0.00000000E+00  0.00000000E+00  0.00000000E+00  1.40304634E+00  0.00000000E+00
  0.00000000E+00  0.00000000E+00  0.00000000E+00 -9.84688914E-02 -5.98760244E-02
 -4.58684030E-01 -1.19947694E-01  4.58684030E-01  1.19947694E-01  0.00000000E+00
  0.00000000E+00  0.00000000E+00  0.00000000E+00  0.00000000E+00  0.00000000E+00
  1.87249102E-02  0.00000000E+00  0.00000000E+00  0.00000000E+00 -1.25977469E-02
  0.00000000E+00  0.00000000E+00  0.00000000E+00  0.00000000E+00  2.50335752E-02
  4.15077187E-02 -2.13333596E-01 -7.61098388E-02  2.13333596E-01  7.61098388E-02
 -2.35141464E-02  3.47769886E-01 -3.99299644E-02 -9.46405770E-01  0.00000000E+00
 -1.15990516E-01  5.94520129E-02  1.09287817E+00  0.00000000E+00  8.74182463E-03
  2.87012628E-02  2.11274092E-02  1.57612344E-02  0.00000000E+00  0.00000000E+00
 -8.21548107E-02 -5.44372762E-02 -8.21548107E-02 -5.44372762E-02 -1.62328910E-01
 -1.56464699E-03  2.85051867E-02 -1.24638924E-01  4.30889893E-02  4.60464840E-04
  0.00000000E+00  4.94643550E-01 -1.54124611E-01 -4.19407110E-01  0.00000000E+00
 -5.55331802E-02  1.60827589E-01 -8.38073636E-02  7.98504174E-03  0.00000000E+00
  0.00000000E+00 -1.62085803E-01  7.11268332E-02 -1.62085803E-01  7.11268332E-02
 -6.02073162E-04  3.90575313E-02 -6.91383265E-01 -4.28199132E-02  0.00000000E+00
  3.25619536E-02  1.61449126E+00 -8.27249022E-02  0.00000000E+00  8.86215730E-02
  2.36370015E-02 -8.90398767E-02 -4.73364075E-02  0.00000000E+00  0.00000000E+00
 -2.57702519E-01 -1.49443339E-01 -2.57702519E-01 -1.49443339E-01  5.18027568E-01
  3.16212102E-01  1.66125532E-02 -9.64012413E-02 -1.89430983E-01  1.18875141E-01
  0.00000000E+00 -5.83452406E-02 -1.68548506E-01 -1.33436146E-01  0.00000000E+00
 -8.10613621E-03 -2.24929078E-02 -2.58792146E-02  1.70090497E-02  0.00000000E+00
  0.00000000E+00  7.31028365E-02  1.84642224E-02  7.31028365E-02  1.84642224E-02
  0.00000000E+00  0.00000000E+00  0.00000000E+00  0.00000000E+00 -5.30789190E-01
  0.00000000E+00  0.00000000E+00  0.00000000E+00  1.44285584E+00  0.00000000E+00
  0.00000000E+00  0.00000000E+00  0.00000000E+00 -3.22421418E-02  1.05789840E-01
  1.19334974E-01 -7.04760624E-01 -1.19334974E-01  7.04760624E-01  0.00000000E+00
  0.00000000E+00  0.00000000E+00  0.00000000E+00  0.00000000E+00  0.00000000E+00
  3.31406667E-01  0.00000000E+00  0.00000000E+00  0.00000000E+00 -1.29039928E+00
  0.00000000E+00  0.00000000E+00  0.00000000E+00  0.00000000E+00 -1.41230128E-01
 -1.01405957E-01  5.97063755E-01 -1.35330856E-01 -5.97063755E-01  1.35330856E-01
 -2.55502889E-02  1.54579272E-01 -1.12837067E-01 -2.06144950E-01  0.00000000E+00
 -7.44995102E-01  4.14659960E-01  5.52649958E-01  0.00000000E+00  6.67605138E-02
 -1.47047628E-01  2.21341399E-02 -5.63320553E-02  0.00000000E+00  0.00000000E+00
 -4.79295247E-02 -3.95990712E-02 -4.79295247E-02 -3.95990712E-02  1.16053181E-01
  1.71365937E-02  1.54225843E-02 -1.15792188E-02  6.92512968E-01 -6.25233082E-01
  0.00000000E+00  2.33485763E-01 -6.55127081E-01  1.14778886E+00  0.00000000E+00
 -8.63192957E-03  5.89169506E-02  6.30405424E-02  6.22511781E-02  0.00000000E+00
  0.00000000E+00  2.41955418E-01  3.70218786E-02  2.41955418E-01  3.70218786E-02
 -4.10547743E-02  3.84661590E-02  4.17282686E-01 -2.95881092E-01  0.00000000E+00
 -2.63007103E-01 -1.06967156E+00  8.81062529E-01  0.00000000E+00  9.40957024E-03
 -1.22322972E-01  3.25544784E-02 -6.17075779E-02  0.00000000E+00  0.00000000E+00
 -1.72553153E-01  1.90476379E-01 -1.72553153E-01  1.90476379E-01  9.79162712E-02
 -8.55036181E-01  3.41970424E-02 -3.61732315E-01 -5.79611418E-01 -3.87090685E-01
  0.00000000E+00  5.86973766E-01  1.15599413E+00  9.99966070E-01  0.00000000E+00
 -1.30615633E-01 -5.17830733E-02  2.52943306E-02  4.26221576E-02  0.00000000E+00
  0.00000000E+00  4.09784786E-01  1.22220277E-01  4.09784786E-01  1.22220277E-01
 -5.43417537E-02 -1.52058579E-01 -7.27162038E-01  8.65337086E-02  0.00000000E+00
  2.16826497E-01  1.08046980E+00  4.64169695E-01  0.00000000E+00 -9.68858127E-02
 -8.93712030E-02  8.88735931E-02  1.52019072E-01  0.00000000E+00  0.00000000E+00
  5.01878791E-02 -7.50552274E-01  5.01878791E-02 -7.50552274E-01 -8.65465755E-01
  1.15883444E+00 -1.97545067E-02 -3.18965222E-01 -1.93349087E-01 -3.85446667E-01
  0.00000000E+00  7.75919322E-01  1.38878483E-01  6.98849765E-01  0.00000000E+00
 -3.15121880E-02 -9.11142513E-02 -7.87129351E-02 -1.20670992E-01  0.00000000E+00
  0.00000000E+00 -1.12221346E-01  1.39028259E-01 -1.12221346E-01  1.39028259E-01
  0.00000000E+00  0.00000000E+00  0.00000000E+00  0.00000000E+00  8.08873327E-01
  0.00000000E+00  0.00000000E+00  0.00000000E+00 -8.79525726E-01  0.00000000E+00
  0.00000000E+00  0.00000000E+00  0.00000000E+00 -2.16592674E-01 -7.90003162E-02
 -6.56057447E-01  1.17504662E+00  6.56057447E-01 -1.17504662E+00  0.00000000E+00
  0.00000000E+00  0.00000000E+00  0.00000000E+00  0.00000000E+00  0.00000000E+00
  2.09294872E-01  0.00000000E+00  0.00000000E+00  0.00000000E+00 -7.01912447E-01
  0.00000000E+00  0.00000000E+00  0.00000000E+00  0.00000000E+00 -1.02024207E-01
  4.95288866E-02  2.44954942E-01  1.96128730E-01 -2.44954942E-01 -1.96128730E-01
  4.25522713E-02 -8.71920953E-01 -2.90285298E-01 -3.82233522E-01  0.00000000E+00
  1.82986180E+00  2.42837816E-01  2.85620585E-01  0.00000000E+00 -9.30389316E-02
 -9.93877838E-02  7.37110697E-02  1.49684292E-02  0.00000000E+00  0.00000000E+00
  6.18531413E-01 -8.87854729E-01  6.18531413E-01 -8.87854729E-01  1.43302927E-01
 -2.05012361E-01  1.82475243E-02 -3.03079878E-01  1.41609066E-01  3.44202698E-01
  0.00000000E+00  3.80462674E-01  1.89103220E-02 -3.56975674E-01  0.00000000E+00
 -1.04634278E-01 -1.13423860E-01  6.43172963E-02 -3.81520126E-03  0.00000000E+00
  0.00000000E+00  4.09886435E-01 -3.79218453E-01  4.09886435E-01 -3.79218453E-01
  0.00000000E+00  0.00000000E+00  0.00000000E+00  0.00000000E+00 -8.73233582E-03
  0.00000000E+00  0.00000000E+00  0.00000000E+00 -3.59751613E-03  0.00000000E+00
  0.00000000E+00  0.00000000E+00  0.00000000E+00 -3.85585366E-02  4.13173507E-02
 -1.14059556E-01  3.80961455E-02  1.14059556E-01 -3.80961455E-02  0.00000000E+00
  0.00000000E+00  0.00000000E+00  0.00000000E+00  0.00000000E+00  0.00000000E+00