hf/6-31G* opted                                                         
FOpt      RHF                                                         6-31G(d)            
Number of atoms                            I                8
Info1-9                                    I   N=           9
          25          15           0           0           0         110
           2           1           2
Charge                                     I                0
Multiplicity                               I                1
Number of electrons                        I               18
Number of alpha electrons                  I                9
Number of beta electrons                   I                9
Number of basis functions                  I               42
Number of independent functions            I               42
Number of point charges in /Mol/           I                0
Number of translation vectors              I                0
Atomic numbers                             I   N=           8
           6           1           1           1           6           1
           1           1
Nuclear charges                            R   N=           8
  6.00000000E+00  1.00000000E+00  1.00000000E+00  1.00000000E+00  6.00000000E+00
  1.00000000E+00  1.00000000E+00  1.00000000E+00
Current cartesian coordinates              R   N=          24
 -2.22044605E-16  0.00000000E+00  1.44312254E+00 -9.56134439E-01  1.65609928E+00
  2.18579865E+00  1.91229127E+00 -1.29267473E-05  2.18579865E+00 -9.56156829E-01
 -1.65608635E+00  2.18579865E+00  2.77555756E-16  1.11022302E-16 -1.44312254E+00
  9.56156829E-01 -1.65608635E+00 -2.18579865E+00 -1.91229127E+00 -1.29267473E-05
 -2.18579865E+00  9.56134439E-01  1.65609928E+00 -2.18579865E+00
Force Field                                I                0
Int Atom Types                             I   N=           8
           0           0           0           0           0           0
           0           0
MM charges                                 R   N=           8
  0.00000000E+00  0.00000000E+00  0.00000000E+00  0.00000000E+00  0.00000000E+00
  0.00000000E+00  0.00000000E+00  0.00000000E+00
Integer atomic weights                     I   N=           8
          12           1           1           1          12           1
           1           1
Real atomic weights                        R   N=           8
  1.20000000E+01  1.00782504E+00  1.00782504E+00  1.00782504E+00  1.20000000E+01
  1.00782504E+00  1.00782504E+00  1.00782504E+00
Atom fragment info                         I   N=           8
           0           0           0           0           0           0
           0           0
Atom residue num                           I   N=           8
           0           0           0           0           0           0
           0           0
Nuclear spins                              I   N=           8
           0           1           1           1           0           1
           1           1
Nuclear ZEff                               R   N=           8
 -3.60000000E+00 -1.00000000E+00 -1.00000000E+00 -1.00000000E+00 -3.60000000E+00
 -1.00000000E+00 -1.00000000E+00 -1.00000000E+00
Nuclear ZNuc                               R   N=           8
  6.00000000E+00  1.00000000E+00  1.00000000E+00  1.00000000E+00  6.00000000E+00
  1.00000000E+00  1.00000000E+00  1.00000000E+00
Nuclear QMom                               R   N=           8
  0.00000000E+00  0.00000000E+00  0.00000000E+00  0.00000000E+00  0.00000000E+00
  0.00000000E+00  0.00000000E+00  0.00000000E+00
Nuclear GFac                               R   N=           8
  0.00000000E+00  2.79284600E+00  2.79284600E+00  2.79284600E+00  0.00000000E+00
  2.79284600E+00  2.79284600E+00  2.79284600E+00
MicOpt                                     I   N=           8
          -1          -1          -1          -1          -1          -1
          -1          -1
Number of contracted shells                I               20
Number of primitive shells                 I               46
Pure/Cartesian d shells                    I                1
Pure/Cartesian f shells                    I                0
Highest angular momentum                   I                2
Largest degree of contraction              I                6
Shell types                                I   N=          20
           0          -1          -1           2           0           0
           0           0           0           0           0          -1
          -1           2           0           0           0           0
           0           0
Number of primitives per shell             I   N=          20
           6           3           1           1           3           1
           3           1           3           1           6           3
           1           1           3           1           3           1
           3           1
Shell to atom map                          I   N=          20
           1           1           1           1           2           2
           3           3           4           4           5           5
           5           5           6           6           7           7
           8           8
Primitive exponents                        R   N=          46
  3.04752488E+03  4.57369518E+02  1.03948685E+02  2.92101553E+01  9.28666296E+00
  3.16392696E+00  7.86827235E+00  1.88128854E+00  5.44249258E-01  1.68714478E-01
  8.00000000E-01  1.87311370E+01  2.82539436E+00  6.40121692E-01  1.61277759E-01
  1.87311370E+01  2.82539436E+00  6.40121692E-01  1.61277759E-01  1.87311370E+01
  2.82539436E+00  6.40121692E-01  1.61277759E-01  3.04752488E+03  4.57369518E+02
  1.03948685E+02  2.92101553E+01  9.28666296E+00  3.16392696E+00  7.86827235E+00
  1.88128854E+00  5.44249258E-01  1.68714478E-01  8.00000000E-01  1.87311370E+01
  2.82539436E+00  6.40121692E-01  1.61277759E-01  1.87311370E+01  2.82539436E+00
  6.40121692E-01  1.61277759E-01  1.87311370E+01  2.82539436E+00  6.40121692E-01
  1.61277759E-01
Contraction coefficients                   R   N=          46
  1.83473713E-03  1.40373228E-02  6.88426223E-02  2.32184443E-01  4.67941348E-01
  3.62311985E-01 -1.19332420E-01 -1.60854152E-01  1.14345644E+00  1.00000000E+00
  1.00000000E+00  3.34946043E-02  2.34726953E-01  8.13757326E-01  1.00000000E+00
  3.34946043E-02  2.34726953E-01  8.13757326E-01  1.00000000E+00  3.34946043E-02
  2.34726953E-01  8.13757326E-01  1.00000000E+00  1.83473713E-03  1.40373228E-02
  6.88426223E-02  2.32184443E-01  4.67941348E-01  3.62311985E-01 -1.19332420E-01
 -1.60854152E-01  1.14345644E+00  1.00000000E+00  1.00000000E+00  3.34946043E-02
  2.34726953E-01  8.13757326E-01  1.00000000E+00  3.34946043E-02  2.34726953E-01
  8.13757326E-01  1.00000000E+00  3.34946043E-02  2.34726953E-01  8.13757326E-01
  1.00000000E+00
P(S=P) Contraction coefficients            R   N=          46
  0.00000000E+00  0.00000000E+00  0.00000000E+00  0.00000000E+00  0.00000000E+00
  0.00000000E+00  6.89990666E-02  3.16423961E-01  7.44308291E-01  1.00000000E+00
  0.00000000E+00  0.00000000E+00  0.00000000E+00  0.00000000E+00  0.00000000E+00
  0.00000000E+00  0.00000000E+00  0.00000000E+00  0.00000000E+00  0.00000000E+00
  0.00000000E+00  0.00000000E+00  0.00000000E+00  0.00000000E+00  0.00000000E+00
  0.00000000E+00  0.00000000E+00  0.00000000E+00  0.00000000E+00  6.89990666E-02
  3.16423961E-01  7.44308291E-01  1.00000000E+00  0.00000000E+00  0.00000000E+00
  0.00000000E+00  0.00000000E+00  0.00000000E+00  0.00000000E+00  0.00000000E+00
  0.00000000E+00  0.00000000E+00  0.00000000E+00  0.00000000E+00  0.00000000E+00
  0.00000000E+00
Coordinates of each shell                  R   N=          60
 -2.22044605E-16  1.11022302E-16  1.44312254E+00 -2.22044605E-16  1.11022302E-16
  1.44312254E+00 -2.22044605E-16  1.11022302E-16  1.44312254E+00 -2.22044605E-16
  1.11022302E-16  1.44312254E+00 -9.56134439E-01  1.65609928E+00  2.18579865E+00
 -9.56134439E-01  1.65609928E+00  2.18579865E+00  1.91229127E+00 -1.29268132E-05
  2.18579865E+00  1.91229127E+00 -1.29268132E-05  2.18579865E+00 -9.56156829E-01
 -1.65608635E+00  2.18579865E+00 -9.56156829E-01 -1.65608635E+00  2.18579865E+00
  0.00000000E+00 -1.11022302E-16 -1.44312254E+00  0.00000000E+00 -1.11022302E-16
 -1.44312254E+00  0.00000000E+00 -1.11022302E-16 -1.44312254E+00  0.00000000E+00
 -1.11022302E-16 -1.44312254E+00  9.56156829E-01 -1.65608635E+00 -2.18579865E+00
  9.56156829E-01 -1.65608635E+00 -2.18579865E+00 -1.91229127E+00 -1.29268131E-05
 -2.18579865E+00 -1.91229127E+00 -1.29268131E-05 -2.18579865E+00  9.56134439E-01
  1.65609928E+00 -2.18579865E+00  9.56134439E-01  1.65609928E+00 -2.18579865E+00
Constraint Structure                       R   N=          24
  1.11022302E-16  1.11022302E-16  1.44622064E+00 -9.62088146E-01  1.66711437E+00
  2.19909131E+00  1.92480747E+00 -3.64412041E-04  2.19909131E+00 -9.62719326E-01
 -1.66674996E+00  2.19909131E+00 -1.11022302E-16 -1.11022302E-16 -1.44622064E+00
  9.62719326E-01 -1.66674996E+00 -2.19909131E+00 -1.92480747E+00 -3.64412041E-04
 -2.19909131E+00  9.62088146E-01  1.66711437E+00 -2.19909131E+00
Num ILSW                                   I              100
ILSW                                       I   N=         100
           0           1           0           0           2           0
           0           0           0           0           0          -1
           0           0           0           0           2           0
           0           0           1           0           1           0
           1           0           0           0           0           0
           0           0      100000           0          -1           0
           0           0           0           0           0           0
           0           0           0           1           0           0
           0           0           1           0           0           0
           0           0           4          41           0           0
           0           0           0           0           0           0
           0           0           0           0           0           0
           0           0           0           0           0           0
           0           0           0           0           0           0
           0           0           0           0           0           0
           0           0           0           0           0           0
           0           0           0           0
Num RLSW                                   I               41
RLSW                                       R   N=          41
  1.00000000E+00  1.00000000E+00  1.00000000E+00  1.00000000E+00  1.00000000E+00
  0.00000000E+00  0.00000000E+00  1.00000000E+00  0.00000000E+00  0.00000000E+00
  0.00000000E+00  0.00000000E+00  1.00000000E+00  0.00000000E+00  0.00000000E+00
  0.00000000E+00  0.00000000E+00  1.00000000E+00  0.00000000E+00  0.00000000E+00
  0.00000000E+00  0.00000000E+00  1.00000000E+00  0.00000000E+00  0.00000000E+00
  0.00000000E+00  0.00000000E+00  1.00000000E+00  0.00000000E+00  0.00000000E+00
  0.00000000E+00  0.00000000E+00  1.00000000E+00  0.00000000E+00  0.00000000E+00
  0.00000000E+00  0.00000000E+00  0.00000000E+00  1.00000000E+00  1.00000000E+00
  0.00000000E+00
MxBond                                     I                4
NBond                                      I   N=           8
           4           1           1           1           4           1
           1           1
IBond                                      I   N=          32
           2           3           4           5           1           0
           0           0           1           0           0           0
           1           0           0           0           1           6
           7           8           5           0           0           0
           5           0           0           0           5           0
           0           0
RBond                                      R   N=          32
  1.00000000E+00  1.00000000E+00  1.00000000E+00  1.00000000E+00  1.00000000E+00
  0.00000000E+00  0.00000000E+00  0.00000000E+00  1.00000000E+00  0.00000000E+00
  0.00000000E+00  0.00000000E+00  1.00000000E+00  0.00000000E+00  0.00000000E+00
  0.00000000E+00  1.00000000E+00  1.00000000E+00  1.00000000E+00  1.00000000E+00
  1.00000000E+00  0.00000000E+00  0.00000000E+00  0.00000000E+00  1.00000000E+00
  0.00000000E+00  0.00000000E+00  0.00000000E+00  1.00000000E+00  0.00000000E+00
  0.00000000E+00  0.00000000E+00
Virial Ratio                               R      2.000361081541626E+00
SCF Energy                                 R     -7.922875493094549E+01
Total Energy                               R     -7.922875493094549E+01
RMS Force                                  R      3.548635975186392E-05
RMS Density                                R      8.943459941510503E-09
External E-field                           R   N=          35
  0.00000000E+00  0.00000000E+00  0.00000000E+00  0.00000000E+00  0.00000000E+00
  0.00000000E+00  0.00000000E+00  0.00000000E+00  0.00000000E+00  0.00000000E+00
  0.00000000E+00  0.00000000E+00  0.00000000E+00  0.00000000E+00  0.00000000E+00
  0.00000000E+00  0.00000000E+00  0.00000000E+00  0.00000000E+00  0.00000000E+00
  0.00000000E+00  0.00000000E+00  0.00000000E+00  0.00000000E+00  0.00000000E+00
  0.00000000E+00  0.00000000E+00  0.00000000E+00  0.00000000E+00  0.00000000E+00
  0.00000000E+00  0.00000000E+00  0.00000000E+00  0.00000000E+00  0.00000000E+00
IOpCl                                      I                0
IROHF                                      I                0
Alpha Orbital Energies                     R   N=          42
 -1.12101840E+01 -1.12095962E+01 -1.01874283E+00 -8.43650640E-01 -5.97848865E-01
 -5.97848865E-01 -5.09336178E-01 -4.87924840E-01 -4.87924840E-01  2.43001751E-01
  3.02683478E-01  3.18018716E-01  3.18018716E-01  3.39112250E-01  3.39112250E-01
  4.13137635E-01  7.07213139E-01  7.38681235E-01  7.38681235E-01  8.47023037E-01
  8.47023037E-01  9.43524181E-01  1.15947871E+00  1.15947871E+00  1.20773130E+00
  1.20773130E+00  1.21188449E+00  1.26399663E+00  1.27841933E+00  1.68911036E+00
  1.80326574E+00  1.80326574E+00  2.25651234E+00  2.29346353E+00  2.29346353E+00
  2.62388269E+00  2.62388269E+00  2.68076367E+00  2.68076367E+00  2.94030047E+00
  4.58092079E+00  4.79781855E+00
Alpha MO coefficients                      R   N=        1764
  7.03980288E-01  2.01738541E-02  1.46339650E-16  1.69508214E-16 -3.25966676E-05
 -8.03428741E-03 -6.40752863E-16 -1.38783056E-16 -8.21704589E-04 -1.38396485E-03
 -1.38396485E-03 -1.70298023E-03  2.64921403E-17 -1.26085854E-16 -1.09695626E-16
 -1.17740216E-05  1.85643594E-03 -1.17740216E-05  1.85643594E-03 -1.17740216E-05
  1.85643594E-03  7.03980288E-01  2.01738541E-02 -1.46339650E-16  1.69508214E-16
  3.25966676E-05 -8.03428741E-03  6.40752863E-16 -1.38783056E-16  8.21704589E-04
 -1.38396485E-03 -1.38396485E-03 -1.70298023E-03 -2.64921403E-17 -1.26085854E-16
  1.09695626E-16 -1.17740216E-05  1.85643594E-03 -1.17740216E-05  1.85643594E-03
 -1.17740216E-05  1.85643594E-03  7.04188804E-01  2.00690435E-02  1.37899641E-16
 -2.31821337E-17 -3.08689761E-05 -1.31669380E-02  2.68883156E-16  1.79925519E-16
  1.63364634E-03 -1.22353229E-03 -1.22353229E-03 -9.80799137E-04 -4.04912095E-17
 -7.77029531E-17 -2.30965083E-16  1.91388146E-04  1.80314996E-03  1.91388146E-04
  1.80314996E-03  1.91388146E-04  1.80314996E-03 -7.04188804E-01 -2.00690435E-02
  1.37899641E-16  2.31821337E-17 -3.08689761E-05  1.31669380E-02  2.68883156E-16
 -1.79925519E-16  1.63364634E-03  1.22353229E-03  1.22353229E-03  9.80799137E-04
 -4.04912095E-17  7.77029531E-17 -2.30965083E-16 -1.91388146E-04 -1.80314996E-03
 -1.91388146E-04 -1.80314996E-03 -1.91388146E-04 -1.80314996E-03 -1.45331538E-01
  2.69314117E-01  8.31999596E-16  4.11854433E-16 -5.60646298E-02  2.38544541E-01
 -1.17240453E-14  1.42904185E-16 -7.50489003E-03  4.35791764E-03  4.35791764E-03
  1.26308828E-02  1.36033348E-17 -5.81681235E-17  1.01594232E-17  8.57643413E-02
  1.77970725E-02  8.57643413E-02  1.77970725E-02  8.57643413E-02  1.77970725E-02
 -1.45331538E-01  2.69314117E-01 -8.31999596E-16  4.11854433E-16  5.60646298E-02
  2.38544541E-01  1.17240453E-14  1.42904185E-16  7.50489003E-03  4.35791764E-03
  4.35791764E-03  1.26308828E-02 -1.36033348E-17 -5.81681235E-17 -1.01594232E-17
  8.57643413E-02  1.77970725E-02  8.57643413E-02  1.77970725E-02  8.57643413E-02
  1.77970725E-02 -1.26943337E-01  2.36527993E-01  7.95878286E-16 -5.17574632E-16
  1.28499166E-01  2.76376256E-01 -2.32502413E-15 -4.03800512E-16  3.94524823E-02
  1.26521796E-02  1.26521796E-02 -1.09010426E-02 -9.63317054E-17 -5.10839724E-16
  1.58057478E-16  1.17146861E-01  4.37195504E-02  1.17146861E-01  4.37195504E-02
  1.17146861E-01  4.37195504E-02  1.26943337E-01 -2.36527993E-01  7.95878286E-16
  5.17574632E-16  1.28499166E-01 -2.76376256E-01 -2.32502413E-15  4.03800512E-16
  3.94524823E-02 -1.26521796E-02 -1.26521796E-02  1.09010426E-02 -9.63317054E-17
  5.10839724E-16  1.58057478E-16 -1.17146861E-01 -4.37195504E-02 -1.17146861E-01
 -4.37195504E-02 -1.17146861E-01 -4.37195504E-02 -1.84644944E-15 -9.07395071E-15
  3.09796528E-01  7.33295012E-08 -2.36307949E-15  6.03386141E-14  1.50059308E-01
 -1.06792861E-07 -3.90392209E-15  1.61296911E-02 -1.61296911E-02 -1.74638593E-15
 -4.10371225E-07  8.09642200E-03  6.59814640E-09 -9.01993354E-02 -6.65449702E-02
  1.80400865E-01  1.33091808E-01 -9.02015300E-02 -6.65468378E-02  1.84644944E-15
  9.07395071E-15  3.09796528E-01 -7.33295012E-08 -2.36307949E-15 -6.03386141E-14
  1.50059308E-01  1.06792861E-07 -3.90392209E-15 -1.61296911E-02  1.61296911E-02
  1.74638593E-15 -4.10371225E-07 -8.09642200E-03  6.59814640E-09  9.02015300E-02
  6.65468378E-02 -1.80400865E-01 -1.33091808E-01  9.01993354E-02  6.65449702E-02
 -7.21158698E-16 -1.58551131E-15 -7.33295007E-08  3.09796528E-01 -1.42418688E-15
  1.40590035E-14  1.06792856E-07  1.50059308E-01  2.86948846E-15 -3.55391906E-07
  3.55391906E-07 -1.09900065E-16 -1.86249630E-02 -6.59814660E-09  8.09642200E-03
  1.56232366E-01  1.15261426E-01 -1.26708688E-06 -1.07827639E-06 -1.56231099E-01
 -1.15260348E-01 -7.21158698E-16 -1.58551131E-15  7.33295007E-08  3.09796528E-01
  1.42418688E-15  1.40590035E-14 -1.06792856E-07  1.50059308E-01 -2.86948846E-15
 -3.55391906E-07  3.55391906E-07 -1.09900065E-16  1.86249630E-02 -6.59814660E-09
 -8.09642200E-03 -1.56231099E-01 -1.15260348E-01 -1.26708688E-06 -1.07827639E-06
  1.56232366E-01  1.15261426E-01  1.69594606E-02 -3.87348797E-02 -2.16575398E-14
  4.05011080E-16  4.02619533E-01 -3.96441243E-02 -4.86696645E-15  7.43611376E-15
  2.05350001E-01  1.43310449E-02  1.43310449E-02 -2.33586838E-02 -2.63878795E-16
 -1.84354909E-15  2.15913403E-16  8.18228177E-02  7.59375089E-02  8.18228177E-02
  7.59375089E-02  8.18228177E-02  7.59375089E-02  1.69594606E-02 -3.87348797E-02
  2.16575398E-14  4.05011080E-16 -4.02619533E-01 -3.96441243E-02  4.86696645E-15
  7.43611376E-15 -2.05350001E-01  1.43310449E-02  1.43310449E-02 -2.33586838E-02
  2.63878795E-16 -1.84354909E-15 -2.15913403E-16  8.18228177E-02  7.59375089E-02
  8.18228177E-02  7.59375089E-02  8.18228177E-02  7.59375089E-02 -2.36095028E-15
 -1.43810290E-14  3.08101660E-01  1.18665067E-07  2.83128715E-14  8.15973209E-14
  1.82111104E-01  2.06943418E-07  3.57717471E-14  2.01547640E-02 -2.01547640E-02
 -7.70048072E-15 -4.33278307E-07  2.48644427E-02  4.11583102E-09 -1.05228477E-01
 -9.86506159E-02  2.10459503E-01  1.97303314E-01 -1.05231026E-01 -9.86526981E-02
 -2.36095028E-15 -1.43810290E-14 -3.08101660E-01  1.18665067E-07 -2.83128715E-14
  8.15973209E-14 -1.82111104E-01  2.06943418E-07 -3.57717471E-14  2.01547640E-02
 -2.01547640E-02 -7.70048072E-15  4.33278307E-07  2.48644427E-02 -4.11583102E-09
 -1.05231026E-01 -9.86526981E-02  2.10459503E-01  1.97303314E-01 -1.05228477E-01
 -9.86506159E-02 -4.03837617E-16 -4.66615577E-15 -1.18665066E-07  3.08101660E-01
 -4.22739386E-16  1.58874395E-14 -2.06943426E-07  1.82111104E-01  3.10947196E-16
 -3.75230021E-07  3.75230021E-07  4.80941231E-16 -2.32727169E-02 -4.11583218E-09
  2.48644427E-02  1.82264012E-01  1.70870283E-01 -1.47173906E-06 -1.20218571E-06
 -1.82262540E-01 -1.70869081E-01  4.03837617E-16  4.66615577E-15 -1.18665066E-07
 -3.08101660E-01 -4.22739386E-16 -1.58874395E-14 -2.06943426E-07 -1.82111104E-01
  3.10947196E-16  3.75230021E-07 -3.75230021E-07 -4.80941231E-16 -2.32727169E-02
  4.11583218E-09  2.48644427E-02  1.82262540E-01  1.70869081E-01  1.47173906E-06
  1.20218571E-06 -1.82264012E-01 -1.70870283E-01 -9.51465828E-02  6.86337707E-02
 -7.76040438E-14 -9.85438821E-14  9.82136739E-02  1.72292729E+00 -7.24294899E-13
 -5.42677278E-13  5.32917927E-01 -1.08671947E-02 -1.08671947E-02 -2.96981337E-04
  8.95135909E-17 -4.79165633E-15  4.09090741E-15  4.51666610E-03 -8.28239020E-01
  4.51666610E-03 -8.28239020E-01  4.51666610E-03 -8.28239020E-01 -9.51465828E-02
  6.86337707E-02  7.76040438E-14 -9.85438821E-14 -9.82136739E-02  1.72292729E+00
  7.24294899E-13 -5.42677278E-13 -5.32917927E-01 -1.08671947E-02 -1.08671947E-02
 -2.96981337E-04 -8.95135909E-17 -4.79165633E-15 -4.09090741E-15  4.51666610E-03
 -8.28239020E-01  4.51666610E-03 -8.28239020E-01  4.51666610E-03 -8.28239020E-01
 -1.25853243E-01  4.95192730E-02 -5.58974234E-13  7.60372715E-14  3.57105592E-02
  2.48763457E+00 -2.16151791E-12  7.22419046E-13 -2.30783693E-01 -6.79823104E-03
 -6.79823104E-03 -1.23295342E-02  4.27643652E-15  3.76035938E-14  3.49760940E-15
  3.98318482E-03 -8.52496193E-01  3.98318482E-03 -8.52496193E-01  3.98318482E-03
 -8.52496193E-01  1.25853243E-01 -4.95192730E-02 -5.58974234E-13 -7.60372715E-14
  3.57105592E-02 -2.48763457E+00 -2.16151791E-12 -7.22419046E-13 -2.30783693E-01
  6.79823104E-03  6.79823104E-03  1.23295342E-02  4.27643652E-15 -3.76035938E-14
  3.49760940E-15 -3.98318482E-03  8.52496193E-01 -3.98318482E-03  8.52496193E-01
 -3.98318482E-03  8.52496193E-01  4.94393438E-14 -9.30176961E-14  8.08916080E-06
 -2.39329739E-01 -5.88367748E-14 -8.16427021E-13  5.82442598E-05 -8.66036723E-01
 -2.70460524E-13 -6.52793071E-07  6.52793061E-07 -1.25957206E-14 -4.23771095E-03
  4.81810806E-07  1.76143759E-02  4.76486487E-02  1.13140642E+00 -1.62637274E-06
 -6.71019429E-05 -4.76470224E-02 -1.13133932E+00  4.94393438E-14 -9.30176961E-14
 -8.08916080E-06 -2.39329739E-01  5.88367748E-14 -8.16427021E-13 -5.82442598E-05
 -8.66036723E-01  2.70460524E-13 -6.52793071E-07  6.52793061E-07 -1.25957206E-14
  4.23771095E-03  4.81810806E-07 -1.76143759E-02 -4.76470224E-02 -1.13133932E+00
 -1.62637274E-06 -6.71019429E-05  4.76486487E-02  1.13140642E+00  3.07874214E-13
 -2.21129163E-13 -2.39329739E-01 -8.08916111E-06 -7.88702257E-14 -5.89701702E-12
 -8.66036723E-01 -5.82442621E-05  8.92440984E-13  3.66996533E-03 -3.66996533E-03
  2.13981997E-14 -7.53780522E-07  1.76143759E-02 -4.81810823E-07 -2.75080822E-02
 -6.53140319E-01  5.50189814E-02  1.30639686E+00 -2.75108992E-02 -6.53256543E-01
 -3.07874214E-13  2.21129163E-13 -2.39329739E-01  8.08916111E-06 -7.88702257E-14
  5.89701702E-12 -8.66036723E-01  5.82442621E-05  8.92440984E-13 -3.66996533E-03
  3.66996533E-03 -2.13981997E-14 -7.53780522E-07 -1.76143759E-02 -4.81810823E-07
  2.75108992E-02  6.53256543E-01 -5.50189814E-02 -1.30639686E+00  2.75080822E-02
  6.53140319E-01  3.89563660E-14 -1.10983843E-13 -2.05994969E-01 -1.09695594E-05
 -6.31053249E-14 -5.75836355E-13 -1.40350707E+00 -3.69557031E-05 -1.99106327E-13
  1.04365209E-02 -1.04365209E-02 -2.70305643E-14 -1.59529544E-07 -1.10261483E-02
  8.91763074E-07 -1.28047981E-02 -7.23322388E-01  2.56135078E-02  1.44676131E+00
 -1.28087097E-02 -7.23438922E-01  3.89563660E-14 -1.10983843E-13  2.05994969E-01
 -1.09695594E-05  6.31053249E-14 -5.75836355E-13  1.40350707E+00 -3.69557031E-05
  1.99106327E-13  1.04365209E-02 -1.04365209E-02 -2.70305643E-14  1.59529544E-07
 -1.10261483E-02 -8.91763074E-07 -1.28087097E-02 -7.23438922E-01  2.56135078E-02
  1.44676131E+00 -1.28047981E-02 -7.23322388E-01  5.41776719E-14 -1.51524421E-14
 -1.09695598E-05  2.05994969E-01 -3.95329692E-14 -1.06729681E-12 -3.69557044E-05
  1.40350707E+00 -9.85625876E-14  1.38156640E-07 -1.38156649E-07 -5.89195602E-15
  1.20510563E-02  8.91763107E-07  1.10261483E-02 -2.21830776E-02 -1.25296569E+00
  2.25833286E-06  6.72808148E-05  2.21808192E-02  1.25289841E+00 -5.41776719E-14
  1.51524421E-14 -1.09695598E-05 -2.05994969E-01 -3.95329692E-14  1.06729681E-12
 -3.69557044E-05 -1.40350707E+00 -9.85625876E-14 -1.38156640E-07  1.38156649E-07
  5.89195602E-15  1.20510563E-02 -8.91763107E-07  1.10261483E-02 -2.21808192E-02
 -1.25289841E+00 -2.25833286E-06 -6.72808148E-05  2.21830776E-02  1.25296569E+00
  4.47945928E-02 -1.65125279E-02  5.46604985E-14  2.18211908E-14  2.64291006E-01
 -1.01778063E+00  1.27267909E-13  1.47553321E-13  1.93427137E+00 -1.17406154E-02
 -1.17406154E-02  1.67529298E-02  2.69962070E-15 -5.24227327E-15  1.43531941E-15
 -4.81814090E-02 -4.60087331E-01 -4.81814090E-02 -4.60087331E-01 -4.81814090E-02
 -4.60087331E-01 -4.47945928E-02  1.65125279E-02  5.46604985E-14 -2.18211908E-14
  2.64291006E-01  1.01778063E+00  1.27267909E-13 -1.47553321E-13  1.93427137E+00
  1.17406154E-02  1.17406154E-02 -1.67529298E-02  2.69962070E-15  5.24227327E-15
  1.43531941E-15  4.81814090E-02  4.60087331E-01  4.81814090E-02  4.60087331E-01
  4.81814090E-02  4.60087331E-01  1.12242986E-02  6.40410697E-02  1.30289027E-14
  1.93001863E-14 -5.97849165E-01  2.94664851E-01 -4.59520603E-15 -2.75954753E-14
  9.09858887E-01 -3.23637086E-02 -3.23637086E-02  1.14260976E-01 -1.93752383E-15
  5.39374555E-16  1.80177531E-15 -1.35477335E-01  1.56388946E-03 -1.35477335E-01
  1.56388946E-03 -1.35477335E-01  1.56388946E-03  1.12242986E-02  6.40410697E-02
 -1.30289027E-14  1.93001863E-14  5.97849165E-01  2.94664851E-01  4.59520603E-15
 -2.75954753E-14 -9.09858887E-01 -3.23637086E-02 -3.23637086E-02  1.14260976E-01
  1.93752383E-15  5.39374555E-16 -1.80177531E-15 -1.35477335E-01  1.56388946E-03
 -1.35477335E-01  1.56388946E-03 -1.35477335E-01  1.56388946E-03 -4.23994011E-16
  7.83990238E-15 -4.26237927E-01 -2.58510891E-06  3.87336851E-16 -1.41112669E-14
  7.32221689E-01  2.26853290E-06 -6.60400986E-15 -5.65605273E-02  5.65605273E-02
  2.51386592E-15  1.59100807E-06 -6.02316848E-02 -4.51623814E-08  2.15120063E-01
  3.77234333E-03 -4.30245541E-01 -7.54249250E-03  2.15125478E-01  3.77014918E-03
  4.23994011E-16 -7.83990238E-15 -4.26237927E-01  2.58510891E-06  3.87336851E-16
  1.41112669E-14  7.32221689E-01 -2.26853290E-06 -6.60400986E-15  5.65605273E-02
 -5.65605273E-02 -2.51386592E-15  1.59100807E-06  6.02316848E-02 -4.51623814E-08
 -2.15125478E-01 -3.77014918E-03  4.30245541E-01  7.54249250E-03 -2.15120063E-01
 -3.77234333E-03  4.86517793E-16 -1.14073279E-14  2.58510886E-06 -4.26237927E-01
 -2.89524771E-14  4.35828321E-14 -2.26853281E-06  7.32221689E-01  4.19202348E-14
  1.37785340E-06 -1.37785341E-06  1.18780605E-15  6.53104713E-02  4.51623804E-08
 -6.02316848E-02 -3.72605132E-01 -6.53135672E-03  3.12632703E-06 -1.26679475E-06
  3.72602005E-01  6.53262351E-03  4.86517793E-16 -1.14073279E-14 -2.58510886E-06
 -4.26237927E-01  2.89524771E-14  4.35828321E-14  2.26853281E-06  7.32221689E-01
 -4.19202348E-14  1.37785340E-06 -1.37785341E-06  1.18780605E-15 -6.53104713E-02
  4.51623804E-08  6.02316848E-02  3.72602005E-01  6.53262351E-03  3.12632703E-06
 -1.26679475E-06 -3.72605132E-01 -6.53135672E-03  1.35310767E-15 -2.07331877E-14
 -9.15411221E-07 -6.36883714E-01 -1.13374121E-14  2.65047146E-14 -1.82870197E-06
  1.67534040E+00  6.85945790E-15  1.53867021E-06 -1.53867022E-06 -6.59906352E-15
  8.63515805E-02  7.51088306E-07 -7.16445029E-03 -2.51699570E-01 -3.16409868E-01
  4.78642993E-06  2.74423744E-06  2.51694784E-01  3.16407124E-01 -1.35310767E-15
  2.07331877E-14 -9.15411221E-07  6.36883714E-01 -1.13374121E-14 -2.65047146E-14
 -1.82870197E-06 -1.67534040E+00  6.85945790E-15 -1.53867021E-06  1.53867022E-06
  6.59906352E-15  8.63515805E-02 -7.51088306E-07 -7.16445029E-03 -2.51694784E-01
 -3.16407124E-01 -4.78642993E-06 -2.74423744E-06  2.51699570E-01  3.16409868E-01
  2.25652660E-15  8.19715711E-14 -6.36883714E-01  9.15411241E-07  1.37653012E-15
 -1.59865701E-13  1.67534040E+00  1.82870191E-06 -8.20326267E-15 -7.47826623E-02
  7.47826623E-02  2.20492285E-14  1.77670332E-06 -7.16445029E-03 -7.51088295E-07
  1.45313288E-01  1.82676154E-01 -2.90634866E-01 -3.65357060E-01  1.45321578E-01
  1.82680907E-01  2.25652660E-15  8.19715711E-14  6.36883714E-01  9.15411241E-07
 -1.37653012E-15 -1.59865701E-13 -1.67534040E+00  1.82870191E-06  8.20326267E-15
 -7.47826623E-02  7.47826623E-02  2.20492285E-14 -1.77670332E-06 -7.16445029E-03
  7.51088295E-07  1.45321578E-01  1.82680907E-01 -2.90634866E-01 -3.65357060E-01
  1.45313288E-01  1.82676154E-01 -5.19826065E-02  3.22840582E-01  5.33355640E-14
  8.83136044E-15 -8.08104037E-01 -7.65352172E-01 -4.69793077E-14 -3.33921692E-15
  1.58510714E+00  4.58953997E-02  4.58953997E-02 -1.03182001E-01  2.31011773E-15
 -8.67585721E-15 -6.06322833E-16 -1.21761814E-01 -2.49802448E-01 -1.21761814E-01
 -2.49802448E-01 -1.21761814E-01 -2.49802448E-01  5.19826065E-02 -3.22840582E-01
  5.33355640E-14 -8.83136044E-15 -8.08104037E-01  7.65352172E-01 -4.69793077E-14
  3.33921692E-15  1.58510714E+00 -4.58953997E-02 -4.58953997E-02  1.03182001E-01
  2.31011773E-15  8.67585721E-15 -6.06322833E-16  1.21761814E-01  2.49802448E-01
  1.21761814E-01  2.49802448E-01  1.21761814E-01  2.49802448E-01 -9.08711744E-15
 -7.21040265E-13 -2.11318902E-07  7.07301748E-01 -1.22351604E-13  1.48134012E-12
 -7.41250156E-06 -1.04821488E+00  2.69729831E-13  2.42553567E-06 -2.42553574E-06