HF/6-31G*                                                               
SP        UHF                                                         6-31G(d)            
Number of atoms                            I                1
Info1-9                                    I   N=           9
           9           8           0           0           0         110
           1           1           2
Charge                                     I                0
Multiplicity                               I                2
Number of electrons                        I                9
Number of alpha electrons                  I                5
Number of beta electrons                   I                4
Number of basis functions                  I               15
Number of independent functions            I               15
Number of point charges in /Mol/           I                0
Number of translation vectors              I                0
Atomic numbers                             I   N=           1
           9
Nuclear charges                            R   N=           1
  9.00000000E+00
Current cartesian coordinates              R   N=           3
  0.00000000E+00  0.00000000E+00  0.00000000E+00
Force Field                                I                0
Int Atom Types                             I   N=           1
           0
MM charges                                 R   N=           1
  0.00000000E+00
Integer atomic weights                     I   N=           1
          19
Real atomic weights                        R   N=           1
  1.89984032E+01
Atom fragment info                         I   N=           1
           0
Atom residue num                           I   N=           1
           0
Nuclear spins                              I   N=           1
           1
Nuclear ZEff                               R   N=           1
 -6.75000000E+00
Nuclear ZNuc                               R   N=           1
  9.00000000E+00
Nuclear QMom                               R   N=           1
  0.00000000E+00
Nuclear GFac                               R   N=           1
  2.62886700E+00
MicOpt                                     I   N=           1
          -1
Number of contracted shells                I                4
Number of primitive shells                 I               11
Pure/Cartesian d shells                    I                1
Pure/Cartesian f shells                    I                0
Highest angular momentum                   I                2
Largest degree of contraction              I                6
Shell types                                I   N=           4
           0          -1          -1           2
Number of primitives per shell             I   N=           4
           6           3           1           1
Shell to atom map                          I   N=           4
           1           1           1           1
Primitive exponents                        R   N=          11
  7.00171309E+03  1.05136609E+03  2.39285690E+02  6.73974453E+01  2.15199573E+01
  7.40310130E+00  2.08479528E+01  4.80830834E+00  1.34406986E+00  3.58151393E-01
  8.00000000E-01
Contraction coefficients                   R   N=          11
  1.81961690E-03  1.39160796E-02  6.84053245E-02  2.33185760E-01  4.71267439E-01
  3.56618546E-01 -1.08506975E-01 -1.46451658E-01  1.12868858E+00  1.00000000E+00
  1.00000000E+00
P(S=P) Contraction coefficients            R   N=          11
  0.00000000E+00  0.00000000E+00  0.00000000E+00  0.00000000E+00  0.00000000E+00
  0.00000000E+00  7.16287242E-02  3.45912103E-01  7.22469956E-01  1.00000000E+00
  0.00000000E+00
Coordinates of each shell                  R   N=          12
  0.00000000E+00  0.00000000E+00  0.00000000E+00  0.00000000E+00  0.00000000E+00
  0.00000000E+00  0.00000000E+00  0.00000000E+00  0.00000000E+00  0.00000000E+00
  0.00000000E+00  0.00000000E+00
Constraint Structure                       R   N=           3
  0.00000000E+00  0.00000000E+00  0.00000000E+00
Num ILSW                                   I              100
ILSW                                       I   N=         100
           1           1           0           0           2           0
           0           0           0           0           0          -1
           0           0           0           0           0           0
           0           0           1           0           0           0
           1           0           0           0           0           0
           0           0      100000           0          -1           0
           0           0           0           0           0           0
           0           0           0           1           0           0
           0           0           1           0           0           0
           0           0           4          41           0           0
           0           0           0           0           0           0
           0           0           0           0           0           0
           0           0           0           0           0           0
           0           0           0           0           0           0
           0           0           0           0           0           0
           0           0           0           0           0           0
           0           0           0           0
Num RLSW                                   I               41
RLSW                                       R   N=          41
  1.00000000E+00  1.00000000E+00  1.00000000E+00  1.00000000E+00  1.00000000E+00
  0.00000000E+00  0.00000000E+00  1.00000000E+00  0.00000000E+00  0.00000000E+00
  0.00000000E+00  0.00000000E+00  1.00000000E+00  0.00000000E+00  0.00000000E+00
  0.00000000E+00  0.00000000E+00  1.00000000E+00  0.00000000E+00  0.00000000E+00
  0.00000000E+00  0.00000000E+00  1.00000000E+00  0.00000000E+00  0.00000000E+00
  0.00000000E+00  0.00000000E+00  1.00000000E+00  0.00000000E+00  0.00000000E+00
  0.00000000E+00  0.00000000E+00  1.00000000E+00  0.00000000E+00  0.00000000E+00
  0.00000000E+00  0.00000000E+00  0.00000000E+00  1.00000000E+00  1.00000000E+00
  0.00000000E+00
MxBond                                     I                1
NBond                                      I   N=           1
           0
IBond                                      I   N=           1
           0
RBond                                      R   N=           1
  0.00000000E+00
Virial Ratio                               R      2.002027898386825E+00
SCF Energy                                 R     -9.936495686964113E+01
Total Energy                               R     -9.936495686964113E+01
S**2                                       R      7.526726534386725E-01
S**2 after annihilation                    R      7.500026795598318E-01
RMS Density                                R      1.802563309291475E-09
External E-field                           R   N=          35
  0.00000000E+00  0.00000000E+00  0.00000000E+00  0.00000000E+00  0.00000000E+00
  0.00000000E+00  0.00000000E+00  0.00000000E+00  0.00000000E+00  0.00000000E+00
  0.00000000E+00  0.00000000E+00  0.00000000E+00  0.00000000E+00  0.00000000E+00
  0.00000000E+00  0.00000000E+00  0.00000000E+00  0.00000000E+00  0.00000000E+00
  0.00000000E+00  0.00000000E+00  0.00000000E+00  0.00000000E+00  0.00000000E+00
  0.00000000E+00  0.00000000E+00  0.00000000E+00  0.00000000E+00  0.00000000E+00
  0.00000000E+00  0.00000000E+00  0.00000000E+00  0.00000000E+00  0.00000000E+00
IOpCl                                      I                1
IROHF                                      I                0
Alpha Orbital Energies                     R   N=          15
 -2.64010952E+01 -1.65491427E+00 -8.23160215E-01 -7.15245583E-01 -7.15245583E-01
  1.06796875E+00  1.36498472E+00  1.43341029E+00  1.43341029E+00  2.04046948E+00
  2.05775116E+00  2.05775116E+00  2.11191927E+00  2.11191927E+00  3.69853358E+00
Beta Orbital Energies                      R   N=          15
 -2.63533463E+01 -1.46300269E+00 -6.63599950E-01 -6.63599950E-01  9.36640002E-02
  1.10026917E+00  1.45866481E+00  1.45866481E+00  1.58848639E+00  2.11865387E+00
  2.11865387E+00  2.14656465E+00  2.14656465E+00  2.15757031E+00  3.74153035E+00
Alpha MO coefficients                      R   N=         225
  9.94112883E-01  1.84454410E-02  0.00000000E+00  0.00000000E+00  0.00000000E+00
  9.13046239E-03  0.00000000E+00  0.00000000E+00  0.00000000E+00 -4.93529441E-03
 -5.12512913E-03 -5.12512913E-03  0.00000000E+00  0.00000000E+00  0.00000000E+00
 -2.37219571E-01  5.79767980E-01  0.00000000E+00  0.00000000E+00  0.00000000E+00
  4.53551421E-01  0.00000000E+00  0.00000000E+00  0.00000000E+00  4.70357124E-02
  1.99126189E-02  1.99126189E-02  0.00000000E+00  0.00000000E+00  0.00000000E+00
  0.00000000E+00  0.00000000E+00  7.07108628E-01  0.00000000E+00  0.00000000E+00
  0.00000000E+00  4.37202743E-01  0.00000000E+00  0.00000000E+00  0.00000000E+00
  0.00000000E+00  0.00000000E+00  0.00000000E+00  0.00000000E+00  0.00000000E+00
  0.00000000E+00  0.00000000E+00  0.00000000E+00  0.00000000E+00  6.89210142E-01
  0.00000000E+00  0.00000000E+00  0.00000000E+00  4.57920288E-01  0.00000000E+00
  0.00000000E+00  0.00000000E+00  0.00000000E+00  0.00000000E+00  0.00000000E+00
  0.00000000E+00  0.00000000E+00  0.00000000E+00  6.89210142E-01  0.00000000E+00
  0.00000000E+00  0.00000000E+00  4.57920288E-01  0.00000000E+00  0.00000000E+00
  0.00000000E+00  0.00000000E+00  0.00000000E+00  0.00000000E+00  0.00000000E+00
 -1.05570759E-01 -1.86694767E+00  0.00000000E+00  0.00000000E+00  0.00000000E+00
  3.67283249E+00  0.00000000E+00  0.00000000E+00  0.00000000E+00 -8.93981072E-01
 -8.97180628E-01 -8.97180628E-01  0.00000000E+00  0.00000000E+00  0.00000000E+00
  0.00000000E+00  0.00000000E+00 -9.12399527E-01  0.00000000E+00  0.00000000E+00
  0.00000000E+00  1.06833013E+00  0.00000000E+00  0.00000000E+00  0.00000000E+00
  0.00000000E+00  0.00000000E+00  0.00000000E+00  0.00000000E+00  0.00000000E+00
  0.00000000E+00  0.00000000E+00  0.00000000E+00 -9.25994000E-01  0.00000000E+00
  0.00000000E+00  0.00000000E+00  1.05961527E+00  0.00000000E+00  0.00000000E+00
  0.00000000E+00  0.00000000E+00  0.00000000E+00  0.00000000E+00  0.00000000E+00
  0.00000000E+00  0.00000000E+00  0.00000000E+00  0.00000000E+00 -9.25994000E-01
  0.00000000E+00  0.00000000E+00  0.00000000E+00  1.05961527E+00  0.00000000E+00
  0.00000000E+00  0.00000000E+00  0.00000000E+00  0.00000000E+00  0.00000000E+00
  1.04776340E-02 -4.82882732E-04  0.00000000E+00  0.00000000E+00  0.00000000E+00
 -6.89476590E-02  0.00000000E+00  0.00000000E+00  0.00000000E+00  1.02421056E+00
 -4.75424154E-01 -4.75424154E-01  0.00000000E+00  0.00000000E+00  0.00000000E+00
  0.00000000E+00  0.00000000E+00  0.00000000E+00  0.00000000E+00  0.00000000E+00
  0.00000000E+00  0.00000000E+00  0.00000000E+00  0.00000000E+00  0.00000000E+00
  0.00000000E+00  0.00000000E+00  0.00000000E+00  1.00000000E+00  0.00000000E+00
  0.00000000E+00  0.00000000E+00  0.00000000E+00  0.00000000E+00  0.00000000E+00
  0.00000000E+00  0.00000000E+00  0.00000000E+00  0.00000000E+00  0.00000000E+00
  0.00000000E+00  0.00000000E+00  1.00000000E+00  0.00000000E+00  0.00000000E+00
  0.00000000E+00  0.00000000E+00  0.00000000E+00  0.00000000E+00  0.00000000E+00
  0.00000000E+00  0.00000000E+00  0.00000000E+00  0.00000000E+00  0.00000000E+00
  0.00000000E+00  0.00000000E+00  0.00000000E+00  0.00000000E+00  1.00000000E+00
  1.25172095E-15 -6.85540652E-15  0.00000000E+00  0.00000000E+00  0.00000000E+00
  1.69497211E-15  0.00000000E+00  0.00000000E+00  0.00000000E+00 -7.93240016E-15
  8.66025404E-01 -8.66025404E-01  0.00000000E+00  0.00000000E+00  0.00000000E+00
 -4.88126955E-01 -4.82866787E-01  0.00000000E+00  0.00000000E+00  0.00000000E+00
  4.24217881E+00  0.00000000E+00  0.00000000E+00  0.00000000E+00 -1.83693508E+00
 -1.85563807E+00 -1.85563807E+00  0.00000000E+00  0.00000000E+00  0.00000000E+00
Beta MO coefficients                       R   N=         225
  9.94889944E-01  1.66010168E-02  0.00000000E+00  0.00000000E+00  0.00000000E+00
  7.07379559E-03  0.00000000E+00  0.00000000E+00  0.00000000E+00 -4.79439487E-03
 -3.83846796E-03 -3.83846796E-03  0.00000000E+00  0.00000000E+00  0.00000000E+00
 -2.34539899E-01  5.46078372E-01  0.00000000E+00  0.00000000E+00  0.00000000E+00
  5.00379397E-01  0.00000000E+00  0.00000000E+00  0.00000000E+00 -1.34574664E-03
  3.39475857E-02  3.39475857E-02  0.00000000E+00  0.00000000E+00  0.00000000E+00
  0.00000000E+00  0.00000000E+00  0.00000000E+00  0.00000000E+00  6.74064214E-01
  0.00000000E+00  0.00000000E+00  0.00000000E+00  4.75087017E-01  0.00000000E+00
  0.00000000E+00  0.00000000E+00  0.00000000E+00  0.00000000E+00  0.00000000E+00
  0.00000000E+00  0.00000000E+00  0.00000000E+00  6.74064214E-01  0.00000000E+00
  0.00000000E+00  0.00000000E+00  4.75087017E-01  0.00000000E+00  0.00000000E+00
  0.00000000E+00  0.00000000E+00  0.00000000E+00  0.00000000E+00  0.00000000E+00
  0.00000000E+00  0.00000000E+00  5.36150695E-01  0.00000000E+00  0.00000000E+00
  0.00000000E+00  6.17772737E-01  0.00000000E+00  0.00000000E+00  0.00000000E+00
  0.00000000E+00  0.00000000E+00  0.00000000E+00  0.00000000E+00  0.00000000E+00
 -1.06751369E-01 -1.88256832E+00  0.00000000E+00  0.00000000E+00  0.00000000E+00
  3.70754764E+00  0.00000000E+00  0.00000000E+00  0.00000000E+00 -9.05609887E-01
 -9.20873282E-01 -9.20873282E-01  0.00000000E+00  0.00000000E+00  0.00000000E+00
  0.00000000E+00  0.00000000E+00  0.00000000E+00 -9.37076808E-01  0.00000000E+00
  0.00000000E+00  0.00000000E+00  1.05203034E+00  0.00000000E+00  0.00000000E+00
  0.00000000E+00  0.00000000E+00  0.00000000E+00  0.00000000E+00  0.00000000E+00
  0.00000000E+00  0.00000000E+00  0.00000000E+00  0.00000000E+00 -9.37076808E-01
  0.00000000E+00  0.00000000E+00  0.00000000E+00  1.05203034E+00  0.00000000E+00
  0.00000000E+00  0.00000000E+00  0.00000000E+00  0.00000000E+00  0.00000000E+00
  0.00000000E+00  0.00000000E+00  1.02226119E+00  0.00000000E+00  0.00000000E+00
  0.00000000E+00 -9.75106330E-01  0.00000000E+00  0.00000000E+00  0.00000000E+00
  0.00000000E+00  0.00000000E+00  0.00000000E+00  0.00000000E+00  0.00000000E+00
  0.00000000E+00  0.00000000E+00  0.00000000E+00  0.00000000E+00  0.00000000E+00
  0.00000000E+00  0.00000000E+00  0.00000000E+00  0.00000000E+00  0.00000000E+00
  0.00000000E+00  0.00000000E+00  0.00000000E+00  0.00000000E+00  1.00000000E+00
  1.23650313E-15 -1.13349272E-14  0.00000000E+00  0.00000000E+00  0.00000000E+00
  1.01248352E-14  0.00000000E+00  0.00000000E+00  0.00000000E+00  3.50334056E-14
  8.66025404E-01 -8.66025404E-01  0.00000000E+00  0.00000000E+00  0.00000000E+00
  0.00000000E+00  0.00000000E+00  0.00000000E+00  0.00000000E+00  0.00000000E+00
  0.00000000E+00  0.00000000E+00  0.00000000E+00  0.00000000E+00  0.00000000E+00
  0.00000000E+00  0.00000000E+00  0.00000000E+00  1.00000000E+00  0.00000000E+00
  0.00000000E+00  0.00000000E+00  0.00000000E+00  0.00000000E+00  0.00000000E+00
  0.00000000E+00  0.00000000E+00  0.00000000E+00  0.00000000E+00  0.00000000E+00
  0.00000000E+00  0.00000000E+00  1.00000000E+00  0.00000000E+00  0.00000000E+00
 -1.01960465E-04  3.55122296E-02  0.00000000E+00  0.00000000E+00  0.00000000E+00
 -5.78523352E-02  0.00000000E+00  0.00000000E+00  0.00000000E+00  1.02343317E+00
 -4.76030482E-01 -4.76030482E-01  0.00000000E+00  0.00000000E+00  0.00000000E+00
 -4.87694178E-01 -4.59699385E-01  0.00000000E+00  0.00000000E+00  0.00000000E+00
  4.20673741E+00  0.00000000E+00  0.00000000E+00  0.00000000E+00 -1.83226830E+00
 -1.84363685E+00 -1.84363685E+00  0.00000000E+00  0.00000000E+00  0.00000000E+00
Total SCF Density                          R   N=         120
  2.08934851E+00 -2.30756442E-01  6.34948327E-01  0.00000000E+00  0.00000000E+00
  5.00002612E-01  0.00000000E+00  0.00000000E+00 -6.57262415E-18  9.29373185E-01
  0.00000000E+00  0.00000000E+00  6.57262415E-18 -2.31111593E-32  9.29373185E-01
 -2.08835848E-01  5.36486805E-01  0.00000000E+00  0.00000000E+00  0.00000000E+00
  4.56221836E-01  0.00000000E+00  0.00000000E+00  3.09149832E-01 -5.00087341E-18
  5.00087341E-18  0.00000000E+00  1.91146238E-01  0.00000000E+00  0.00000000E+00
 -5.00087341E-18  6.35842464E-01 -1.54074396E-33  0.00000000E+00 -3.73891341E-18
  4.35398664E-01  0.00000000E+00  0.00000000E+00  5.00087341E-18 -1.54074396E-33
  6.35842464E-01  0.00000000E+00  3.73891341E-18  8.85927774E-33  4.35398664E-01
 -2.05182952E-02  2.63642913E-02  0.00000000E+00  0.00000000E+00  0.00000000E+00
  2.05807542E-02  0.00000000E+00  0.00000000E+00  0.00000000E+00  2.26151262E-03
 -2.15995363E-02  2.99244835E-02  0.00000000E+00  0.00000000E+00  0.00000000E+00
  2.59441217E-02  0.00000000E+00  0.00000000E+00  0.00000000E+00  9.34616520E-04
  1.58995175E-03 -2.15995363E-02  2.99244835E-02  0.00000000E+00  0.00000000E+00
  0.00000000E+00  2.59441217E-02  0.00000000E+00  0.00000000E+00  0.00000000E+00
  9.34616520E-04  1.58995175E-03  1.58995175E-03  1.91116605E-20 -6.29287822E-20
  0.00000000E+00  0.00000000E+00  0.00000000E+00 -9.48011155E-20  0.00000000E+00
  0.00000000E+00  0.00000000E+00  2.34537779E-20 -1.15834894E-20 -1.15834894E-20
  4.95445746E-36 -1.91116605E-20  6.29287822E-20  0.00000000E+00  0.00000000E+00
  0.00000000E+00  9.48011155E-20  0.00000000E+00  0.00000000E+00  0.00000000E+00
 -2.34537779E-20  1.15834894E-20  1.15834894E-20  0.00000000E+00  4.95445746E-36
  5.89326171E-33  2.05708192E-33  0.00000000E+00  0.00000000E+00  0.00000000E+00
  3.55819575E-33  0.00000000E+00  0.00000000E+00  0.00000000E+00 -1.09885138E-33
  4.36956168E-34  4.40430968E-34  0.00000000E+00  0.00000000E+00 -4.91355426E-52
Spin SCF Density                           R   N=         120
 -2.81414375E-04 -7.63447973E-03  3.79939630E-02  0.00000000E+00  0.00000000E+00
  5.00002612E-01  0.00000000E+00  0.00000000E+00  7.33775795E-18  2.06480556E-02
  0.00000000E+00  0.00000000E+00 -7.33775795E-18 -4.62223187E-33  2.06480556E-02
  1.18067216E-02 -1.02407918E-02  0.00000000E+00  0.00000000E+00  0.00000000E+00
 -4.46373222E-02  0.00000000E+00  0.00000000E+00  3.09149832E-01  4.80329925E-18
 -4.80329925E-18  0.00000000E+00  1.91146238E-01  0.00000000E+00  0.00000000E+00
  4.80329925E-18 -4.63585030E-03  0.00000000E+00  0.00000000E+00  3.17116289E-18
 -1.60166842E-02  0.00000000E+00  0.00000000E+00 -4.80329925E-18  0.00000000E+00
 -4.63585030E-03  0.00000000E+00 -3.17116289E-18  3.85185989E-34 -1.60166842E-02
 -1.16097673E-02  2.79932412E-02  0.00000000E+00  0.00000000E+00  0.00000000E+00
  2.19953511E-02  0.00000000E+00  0.00000000E+00  0.00000000E+00  2.21191811E-03
  1.96229665E-03 -7.02415625E-03  0.00000000E+00  0.00000000E+00  0.00000000E+00
 -7.97491808E-03  0.00000000E+00  0.00000000E+00  0.00000000E+00  9.89179956E-04
 -7.44393068E-04  1.96229665E-03 -7.02415625E-03  0.00000000E+00  0.00000000E+00
  0.00000000E+00 -7.97491808E-03  0.00000000E+00  0.00000000E+00  0.00000000E+00
  9.89179956E-04 -7.44393068E-04 -7.44393068E-04 -2.39895326E-19  6.18955969E-19
  0.00000000E+00  0.00000000E+00  0.00000000E+00  5.29744594E-19  0.00000000E+00
  0.00000000E+00  0.00000000E+00  2.16127164E-20  3.06420650E-20  3.06420650E-20
 -1.27679831E-36  2.39895326E-19 -6.18955969E-19  0.00000000E+00  0.00000000E+00
  0.00000000E+00 -5.29744594E-19  0.00000000E+00  0.00000000E+00  0.00000000E+00
 -2.16127164E-20 -3.06420650E-20 -3.06420650E-20  0.00000000E+00 -1.27679831E-36
  2.30726756E-32 -2.70756458E-32  0.00000000E+00  0.00000000E+00  0.00000000E+00
 -2.32394660E-32  0.00000000E+00  0.00000000E+00  0.00000000E+00 -1.04857536E-33
 -1.40468812E-33 -1.40816292E-33  0.00000000E+00  0.00000000E+00  4.91355426E-52
Mulliken Charges                           R   N=           1
 -5.32907052E-15
ONIOM Charges                              I   N=          16
           0           0           0           0           0           0
           0           0           0           0           0           0
           0           0           0           0
ONIOM Multiplicities                       I   N=          16
           2           0           0           0           0           0
           0           0           0           0           0           0
           0           0           0           0
Atom Layers                                I   N=           1
           1
Atom Modifiers                             I   N=           1
           0
Force Field                                I                0
Int Atom Modified Types                    I   N=           1
           0
Link Atoms                                 I   N=           1
           0
Atom Modified MM Charges                   R   N=           1
  0.00000000E+00
Link Distances                             R   N=           4
  0.00000000E+00  0.00000000E+00  0.00000000E+00  0.00000000E+00
Cartesian Gradient                         R   N=           3
  0.00000000E+00  0.00000000E+00  0.00000000E+00
Dipole Moment                              R   N=           3
  0.00000000E+00  0.00000000E+00  0.00000000E+00
Quadrupole Moment                          R   N=           6
  4.22796555E-01 -2.11398278E-01 -2.11398278E-01  9.70798777E-18 -9.70798777E-18
 -1.06703611E-32
Anisotropic Hyperfine tensors              R   N=           6
  5.82323506E+00  0.00000000E+00 -2.91161753E+00  0.00000000E+00  0.00000000E+00
 -2.91161753E+00
Isotropic Hyperfine splittings             R   N=           1
  6.92929843E-02
QEq coupling tensors                       R   N=           6
 -5.29513266E+00  0.00000000E+00  2.64756633E+00  0.00000000E+00  0.00000000E+00
  2.64756633E+00
