hf/6-31G* opted                                                         
FOpt      RHF                                                         6-31G(d)            
Number of atoms                            I                2
Info1-9                                    I   N=           9
          12          11           0           0           0         110
           2           1           2
Charge                                     I                0
Multiplicity                               I                1
Number of electrons                        I               18
Number of alpha electrons                  I                9
Number of beta electrons                   I                9
Number of basis functions                  I               30
Number of independent functions            I               30
Number of point charges in /Mol/           I                0
Number of translation vectors              I                0
Atomic numbers                             I   N=           2
           9           9
Nuclear charges                            R   N=           2
  9.00000000E+00  9.00000000E+00
Current cartesian coordinates              R   N=           6
  0.00000000E+00  0.00000000E+00  1.27073206E+00  1.55614655E-16  0.00000000E+00
 -1.27073206E+00
Force Field                                I                0
Int Atom Types                             I   N=           2
           0           0
MM charges                                 R   N=           2
  0.00000000E+00  0.00000000E+00
Integer atomic weights                     I   N=           2
          19          19
Real atomic weights                        R   N=           2
  1.89984032E+01  1.89984032E+01
Atom fragment info                         I   N=           2
           0           0
Atom residue num                           I   N=           2
           0           0
Nuclear spins                              I   N=           2
           1           1
Nuclear ZEff                               R   N=           2
 -6.75000000E+00 -6.75000000E+00
Nuclear ZNuc                               R   N=           2
  9.00000000E+00  9.00000000E+00
Nuclear QMom                               R   N=           2
  0.00000000E+00  0.00000000E+00
Nuclear GFac                               R   N=           2
  2.62886700E+00  2.62886700E+00
MicOpt                                     I   N=           2
          -1          -1
Number of contracted shells                I                8
Number of primitive shells                 I               22
Pure/Cartesian d shells                    I                1
Pure/Cartesian f shells                    I                0
Highest angular momentum                   I                2
Largest degree of contraction              I                6
Shell types                                I   N=           8
           0          -1          -1           2           0          -1
          -1           2
Number of primitives per shell             I   N=           8
           6           3           1           1           6           3
           1           1
Shell to atom map                          I   N=           8
           1           1           1           1           2           2
           2           2
Primitive exponents                        R   N=          22
  7.00171309E+03  1.05136609E+03  2.39285690E+02  6.73974453E+01  2.15199573E+01
  7.40310130E+00  2.08479528E+01  4.80830834E+00  1.34406986E+00  3.58151393E-01
  8.00000000E-01  7.00171309E+03  1.05136609E+03  2.39285690E+02  6.73974453E+01
  2.15199573E+01  7.40310130E+00  2.08479528E+01  4.80830834E+00  1.34406986E+00
  3.58151393E-01  8.00000000E-01
Contraction coefficients                   R   N=          22
  1.81961690E-03  1.39160796E-02  6.84053245E-02  2.33185760E-01  4.71267439E-01
  3.56618546E-01 -1.08506975E-01 -1.46451658E-01  1.12868858E+00  1.00000000E+00
  1.00000000E+00  1.81961690E-03  1.39160796E-02  6.84053245E-02  2.33185760E-01
  4.71267439E-01  3.56618546E-01 -1.08506975E-01 -1.46451658E-01  1.12868858E+00
  1.00000000E+00  1.00000000E+00
P(S=P) Contraction coefficients            R   N=          22
  0.00000000E+00  0.00000000E+00  0.00000000E+00  0.00000000E+00  0.00000000E+00
  0.00000000E+00  7.16287242E-02  3.45912103E-01  7.22469956E-01  1.00000000E+00
  0.00000000E+00  0.00000000E+00  0.00000000E+00  0.00000000E+00  0.00000000E+00
  0.00000000E+00  0.00000000E+00  7.16287242E-02  3.45912103E-01  7.22469956E-01
  1.00000000E+00  0.00000000E+00
Coordinates of each shell                  R   N=          24
  0.00000000E+00  0.00000000E+00  1.27073206E+00  0.00000000E+00  0.00000000E+00
  1.27073206E+00  0.00000000E+00  0.00000000E+00  1.27073206E+00  0.00000000E+00
  0.00000000E+00  1.27073206E+00  1.55614655E-16  0.00000000E+00 -1.27073206E+00
  1.55614655E-16  0.00000000E+00 -1.27073206E+00  1.55614655E-16  0.00000000E+00
 -1.27073206E+00  1.55614655E-16  0.00000000E+00 -1.27073206E+00
Constraint Structure                       R   N=           6
  0.00000000E+00  0.00000000E+00  1.09604116E+00  1.34221897E-16  0.00000000E+00
 -1.09604116E+00
Num ILSW                                   I              100
ILSW                                       I   N=         100
           0           1           0           0           2           0
           0           0           0           0           0          -1
           0           0           0           0           2           0
           0           0           0           0           1           0
           1           0           0           0           0           0
           0           0      100000           0          -1           0
           0           0           0           0           0           0
           0           0           0           1           0           0
           0           0           1           0           0           0
           0           0           4          41           0           0
           0           0           0           0           0           0
           0           0           0           2           0           0
           0           0           0           0           0           0
           0           0           0           0           0           0
           0           0           0           0           0           0
           0           0           0           0           0           0
           0           0           0           0
Num RLSW                                   I               41
RLSW                                       R   N=          41
  1.00000000E+00  1.00000000E+00  1.00000000E+00  1.00000000E+00  1.00000000E+00
  0.00000000E+00  0.00000000E+00  1.00000000E+00  0.00000000E+00  0.00000000E+00
  0.00000000E+00  0.00000000E+00  1.00000000E+00  0.00000000E+00  0.00000000E+00
  0.00000000E+00  0.00000000E+00  1.00000000E+00  0.00000000E+00  0.00000000E+00
  0.00000000E+00  0.00000000E+00  1.00000000E+00  0.00000000E+00  0.00000000E+00
  0.00000000E+00  0.00000000E+00  1.00000000E+00  0.00000000E+00  0.00000000E+00
  0.00000000E+00  0.00000000E+00  1.00000000E+00  0.00000000E+00  0.00000000E+00
  0.00000000E+00  0.00000000E+00  0.00000000E+00  1.00000000E+00  1.00000000E+00
  0.00000000E+00
MxBond                                     I                1
NBond                                      I   N=           2
           1           1
IBond                                      I   N=           2
           2           1
RBond                                      R   N=           2
  2.00000000E+00  2.00000000E+00
Virial Ratio                               R      2.002351264398084E+00
SCF Energy                                 R     -1.986777566792020E+02
Total Energy                               R     -1.986777566792020E+02
RMS Force                                  R      8.977073347124756E-06
RMS Density                                R      2.070829072564233E-09
External E-field                           R   N=          35
  0.00000000E+00  0.00000000E+00  0.00000000E+00  0.00000000E+00  0.00000000E+00
  0.00000000E+00  0.00000000E+00  0.00000000E+00  0.00000000E+00  0.00000000E+00
  0.00000000E+00  0.00000000E+00  0.00000000E+00  0.00000000E+00  0.00000000E+00
  0.00000000E+00  0.00000000E+00  0.00000000E+00  0.00000000E+00  0.00000000E+00
  0.00000000E+00  0.00000000E+00  0.00000000E+00  0.00000000E+00  0.00000000E+00
  0.00000000E+00  0.00000000E+00  0.00000000E+00  0.00000000E+00  0.00000000E+00
  0.00000000E+00  0.00000000E+00  0.00000000E+00  0.00000000E+00  0.00000000E+00
IOpCl                                      I                0
IROHF                                      I                0
Alpha Orbital Energies                     R   N=          30
 -2.64250398E+01 -2.64247284E+01 -1.79487286E+00 -1.46979636E+00 -8.16342882E-01
 -8.16342882E-01 -7.66302183E-01 -6.42068695E-01 -6.42068695E-01  1.67688159E-01
  1.04733578E+00  1.21582321E+00  1.36884588E+00  1.36884588E+00  1.53258238E+00
  1.54004111E+00  1.54004111E+00  1.81089851E+00  1.81089851E+00  1.92485145E+00
  1.94630978E+00  1.94630978E+00  2.24125991E+00  2.24125991E+00  2.55279689E+00
  2.84249698E+00  2.84249698E+00  3.69566177E+00  3.78061716E+00  4.36851799E+00
Alpha MO coefficients                      R   N=         900
  7.03230171E-01  1.26292858E-02  0.00000000E+00  0.00000000E+00 -9.28335313E-04
  5.23968915E-03  0.00000000E+00  0.00000000E+00  2.55058014E-04 -3.01358316E-03
 -3.01358316E-03 -3.26582750E-03  0.00000000E+00  0.00000000E+00  0.00000000E+00
  7.03230171E-01  1.26292858E-02  0.00000000E+00  0.00000000E+00  9.28335313E-04
  5.23968915E-03  0.00000000E+00  0.00000000E+00 -2.55058014E-04 -3.01358316E-03
 -3.01358316E-03 -3.26582750E-03  0.00000000E+00  0.00000000E+00  0.00000000E+00
  7.03311193E-01  1.27645378E-02  0.00000000E+00  0.00000000E+00 -4.85816348E-04
  4.03140026E-03  0.00000000E+00  0.00000000E+00  1.43846377E-03 -2.74062775E-03
 -2.74062775E-03 -3.88370960E-03  0.00000000E+00  0.00000000E+00  0.00000000E+00
 -7.03311193E-01 -1.27645378E-02  0.00000000E+00  0.00000000E+00 -4.85816348E-04
 -4.03140026E-03  0.00000000E+00  0.00000000E+00  1.43846377E-03  2.74062775E-03
  2.74062775E-03  3.88370960E-03  0.00000000E+00  0.00000000E+00  0.00000000E+00
 -1.56527968E-01  3.77940750E-01  0.00000000E+00  0.00000000E+00 -7.83512182E-02
  2.58413267E-01  0.00000000E+00  0.00000000E+00 -3.63094205E-02  1.60725926E-02
  1.60725926E-02  4.25543469E-02  0.00000000E+00  0.00000000E+00  0.00000000E+00
 -1.56527968E-01  3.77940750E-01  0.00000000E+00  0.00000000E+00  7.83512182E-02
  2.58413267E-01  0.00000000E+00  0.00000000E+00  3.63094205E-02  1.60725926E-02
  1.60725926E-02  4.25543469E-02  0.00000000E+00  0.00000000E+00  0.00000000E+00
 -1.69882737E-01  4.11535591E-01  0.00000000E+00  0.00000000E+00  7.03866701E-02
  3.69339985E-01  0.00000000E+00  0.00000000E+00  2.72262246E-02  2.11684985E-02
  2.11684985E-02  1.16375442E-02  0.00000000E+00  0.00000000E+00  0.00000000E+00
  1.69882737E-01 -4.11535591E-01  0.00000000E+00  0.00000000E+00  7.03866701E-02
 -3.69339985E-01  0.00000000E+00  0.00000000E+00  2.72262246E-02 -2.11684985E-02
 -2.11684985E-02 -1.16375442E-02  0.00000000E+00  0.00000000E+00  0.00000000E+00
  0.00000000E+00  0.00000000E+00  0.00000000E+00  4.66098382E-01  0.00000000E+00
  0.00000000E+00  0.00000000E+00  2.97971492E-01  0.00000000E+00  0.00000000E+00
  0.00000000E+00  0.00000000E+00  0.00000000E+00  0.00000000E+00 -1.77706462E-02
  0.00000000E+00  0.00000000E+00  0.00000000E+00  4.66098382E-01  0.00000000E+00
  0.00000000E+00  0.00000000E+00  2.97971492E-01  0.00000000E+00  0.00000000E+00
  0.00000000E+00  0.00000000E+00  0.00000000E+00  0.00000000E+00  1.77706462E-02
  0.00000000E+00  0.00000000E+00  4.66098382E-01  0.00000000E+00  0.00000000E+00
  0.00000000E+00  2.97971492E-01  0.00000000E+00  0.00000000E+00  0.00000000E+00
  0.00000000E+00  0.00000000E+00  0.00000000E+00 -1.77706462E-02  0.00000000E+00
  0.00000000E+00  0.00000000E+00  4.66098382E-01  0.00000000E+00  0.00000000E+00
  0.00000000E+00  2.97971492E-01  0.00000000E+00  0.00000000E+00  0.00000000E+00
  0.00000000E+00  0.00000000E+00  0.00000000E+00  1.77706462E-02  0.00000000E+00
 -4.25843839E-02  8.56681208E-02  0.00000000E+00  0.00000000E+00  4.41433171E-01
  1.98913976E-01  0.00000000E+00  0.00000000E+00  2.86593378E-01  4.21651596E-03
  4.21651596E-03 -4.86377654E-02  0.00000000E+00  0.00000000E+00  0.00000000E+00
 -4.25843839E-02  8.56681208E-02  0.00000000E+00  0.00000000E+00 -4.41433171E-01
  1.98913976E-01  0.00000000E+00  0.00000000E+00 -2.86593378E-01  4.21651596E-03
  4.21651596E-03 -4.86377654E-02  0.00000000E+00  0.00000000E+00  0.00000000E+00
  0.00000000E+00  0.00000000E+00  0.00000000E+00  5.13422280E-01  0.00000000E+00
  0.00000000E+00  0.00000000E+00  3.52709631E-01  0.00000000E+00  0.00000000E+00
  0.00000000E+00  0.00000000E+00  0.00000000E+00  0.00000000E+00  5.30661065E-04
  0.00000000E+00  0.00000000E+00  0.00000000E+00 -5.13422280E-01  0.00000000E+00
  0.00000000E+00  0.00000000E+00 -3.52709631E-01  0.00000000E+00  0.00000000E+00
  0.00000000E+00  0.00000000E+00  0.00000000E+00  0.00000000E+00  5.30661065E-04
  0.00000000E+00  0.00000000E+00  5.13422280E-01  0.00000000E+00  0.00000000E+00
  0.00000000E+00  3.52709631E-01  0.00000000E+00  0.00000000E+00  0.00000000E+00
  0.00000000E+00  0.00000000E+00  0.00000000E+00  5.30661065E-04  0.00000000E+00
  0.00000000E+00  0.00000000E+00 -5.13422280E-01  0.00000000E+00  0.00000000E+00
  0.00000000E+00 -3.52709631E-01  0.00000000E+00  0.00000000E+00  0.00000000E+00
  0.00000000E+00  0.00000000E+00  0.00000000E+00  5.30661065E-04  0.00000000E+00
  5.21609517E-02 -1.74940808E-01  0.00000000E+00  0.00000000E+00  5.01046399E-01
 -2.40895002E-01  0.00000000E+00  0.00000000E+00  5.90697314E-01 -3.20119755E-02
 -3.20119755E-02 -1.40388150E-02  0.00000000E+00  0.00000000E+00  0.00000000E+00
 -5.21609517E-02  1.74940808E-01  0.00000000E+00  0.00000000E+00  5.01046399E-01
  2.40895002E-01  0.00000000E+00  0.00000000E+00  5.90697314E-01  3.20119755E-02
  3.20119755E-02  1.40388150E-02  0.00000000E+00  0.00000000E+00  0.00000000E+00
 -7.21257939E-02 -1.28166935E+00  0.00000000E+00  0.00000000E+00 -7.51757685E-02
  2.39599014E+00  0.00000000E+00  0.00000000E+00  9.18560173E-02 -5.81309824E-01
 -5.81309824E-01 -6.90152686E-01  0.00000000E+00  0.00000000E+00  0.00000000E+00
 -7.21257939E-02 -1.28166935E+00  0.00000000E+00  0.00000000E+00  7.51757685E-02
  2.39599014E+00  0.00000000E+00  0.00000000E+00 -9.18560173E-02 -5.81309824E-01
 -5.81309824E-01 -6.90152686E-01  0.00000000E+00  0.00000000E+00  0.00000000E+00
 -4.85169029E-02 -8.35675917E-01  0.00000000E+00  0.00000000E+00 -4.89648699E-01
  1.49008102E+00  0.00000000E+00  0.00000000E+00  7.85611843E-01 -3.63946604E-01
 -3.63946604E-01 -6.37748014E-01  0.00000000E+00  0.00000000E+00  0.00000000E+00
  4.85169029E-02  8.35675917E-01  0.00000000E+00  0.00000000E+00 -4.89648699E-01
 -1.49008102E+00  0.00000000E+00  0.00000000E+00  7.85611843E-01  3.63946604E-01
  3.63946604E-01  6.37748014E-01  0.00000000E+00  0.00000000E+00  0.00000000E+00
  0.00000000E+00  0.00000000E+00  6.67151638E-01  0.00000000E+00  0.00000000E+00
  0.00000000E+00 -6.39697839E-01  0.00000000E+00  0.00000000E+00  0.00000000E+00
  0.00000000E+00  0.00000000E+00  0.00000000E+00  2.74748488E-02  0.00000000E+00
  0.00000000E+00  0.00000000E+00  6.67151638E-01  0.00000000E+00  0.00000000E+00
  0.00000000E+00 -6.39697839E-01  0.00000000E+00  0.00000000E+00  0.00000000E+00
  0.00000000E+00  0.00000000E+00  0.00000000E+00 -2.74748488E-02  0.00000000E+00
  0.00000000E+00  0.00000000E+00  0.00000000E+00  6.67151638E-01  0.00000000E+00
  0.00000000E+00  0.00000000E+00 -6.39697839E-01  0.00000000E+00  0.00000000E+00
  0.00000000E+00  0.00000000E+00  0.00000000E+00  0.00000000E+00  2.74748488E-02
  0.00000000E+00  0.00000000E+00  0.00000000E+00  6.67151638E-01  0.00000000E+00
  0.00000000E+00  0.00000000E+00 -6.39697839E-01  0.00000000E+00  0.00000000E+00
  0.00000000E+00  0.00000000E+00  0.00000000E+00  0.00000000E+00 -2.74748488E-02
  9.78623440E-03 -4.16489906E-03  0.00000000E+00  0.00000000E+00 -5.46756147E-01
  8.06301245E-02  0.00000000E+00  0.00000000E+00  6.32014364E-01 -1.38078264E-01
 -1.38078264E-01  3.32569362E-01  0.00000000E+00  0.00000000E+00  0.00000000E+00
  9.78623440E-03 -4.16489906E-03  0.00000000E+00  0.00000000E+00  5.46756147E-01
  8.06301245E-02  0.00000000E+00  0.00000000E+00 -6.32014364E-01 -1.38078264E-01
 -1.38078264E-01  3.32569362E-01  0.00000000E+00  0.00000000E+00  0.00000000E+00
  0.00000000E+00  0.00000000E+00 -6.35290663E-01  0.00000000E+00  0.00000000E+00
  0.00000000E+00  8.86472246E-01  0.00000000E+00  0.00000000E+00  0.00000000E+00
  0.00000000E+00  0.00000000E+00  0.00000000E+00  9.56872999E-02  0.00000000E+00
  0.00000000E+00  0.00000000E+00  6.35290663E-01  0.00000000E+00  0.00000000E+00
  0.00000000E+00 -8.86472246E-01  0.00000000E+00  0.00000000E+00  0.00000000E+00
  0.00000000E+00  0.00000000E+00  0.00000000E+00  9.56872999E-02  0.00000000E+00
  0.00000000E+00  0.00000000E+00  0.00000000E+00 -6.35290663E-01  0.00000000E+00
  0.00000000E+00  0.00000000E+00  8.86472246E-01  0.00000000E+00  0.00000000E+00
  0.00000000E+00  0.00000000E+00  0.00000000E+00  0.00000000E+00  9.56872999E-02
  0.00000000E+00  0.00000000E+00  0.00000000E+00  6.35290663E-01  0.00000000E+00
  0.00000000E+00  0.00000000E+00 -8.86472246E-01  0.00000000E+00  0.00000000E+00
  0.00000000E+00  0.00000000E+00  0.00000000E+00  0.00000000E+00  9.56872999E-02
  0.00000000E+00  0.00000000E+00  0.00000000E+00 -3.39759125E-02  0.00000000E+00
  0.00000000E+00  0.00000000E+00  1.55979363E-01  0.00000000E+00  0.00000000E+00
  0.00000000E+00  0.00000000E+00  0.00000000E+00  0.00000000E+00  6.25989907E-01
  0.00000000E+00  0.00000000E+00  0.00000000E+00 -3.39759125E-02  0.00000000E+00
  0.00000000E+00  0.00000000E+00  1.55979363E-01  0.00000000E+00  0.00000000E+00
  0.00000000E+00  0.00000000E+00  0.00000000E+00  0.00000000E+00 -6.25989907E-01
  0.00000000E+00  0.00000000E+00 -3.39759125E-02  0.00000000E+00  0.00000000E+00
  0.00000000E+00  1.55979363E-01  0.00000000E+00  0.00000000E+00  0.00000000E+00
  0.00000000E+00  0.00000000E+00  0.00000000E+00  6.25989907E-01  0.00000000E+00
  0.00000000E+00  0.00000000E+00 -3.39759125E-02  0.00000000E+00  0.00000000E+00
  0.00000000E+00  1.55979363E-01  0.00000000E+00  0.00000000E+00  0.00000000E+00
  0.00000000E+00  0.00000000E+00  0.00000000E+00 -6.25989907E-01  0.00000000E+00
 -8.20130965E-02 -1.21952730E+00  0.00000000E+00  0.00000000E+00  4.05498240E-01
  3.07086554E+00  0.00000000E+00  0.00000000E+00 -1.36889761E+00 -3.49952225E-01
 -3.49952225E-01 -6.33440812E-01  0.00000000E+00  0.00000000E+00  0.00000000E+00
  8.20130965E-02  1.21952730E+00  0.00000000E+00  0.00000000E+00  4.05498240E-01
 -3.07086554E+00  0.00000000E+00  0.00000000E+00 -1.36889761E+00  3.49952225E-01
  3.49952225E-01  6.33440812E-01  0.00000000E+00  0.00000000E+00  0.00000000E+00
  0.00000000E+00  0.00000000E+00  0.00000000E+00  0.00000000E+00  0.00000000E+00
  0.00000000E+00  0.00000000E+00  0.00000000E+00  0.00000000E+00  0.00000000E+00
  0.00000000E+00  0.00000000E+00  6.81835631E-01  0.00000000E+00  0.00000000E+00
  0.00000000E+00  0.00000000E+00  0.00000000E+00  0.00000000E+00  0.00000000E+00
  0.00000000E+00  0.00000000E+00  0.00000000E+00  0.00000000E+00  0.00000000E+00
  0.00000000E+00  0.00000000E+00  6.81835631E-01  0.00000000E+00  0.00000000E+00
 -1.06201650E-14  5.74203249E-14  0.00000000E+00  0.00000000E+00  8.61851995E-15
 -1.69437787E-14  0.00000000E+00  0.00000000E+00 -9.10804904E-15  5.90486978E-01
 -5.90486978E-01  6.94762666E-15  0.00000000E+00  0.00000000E+00  0.00000000E+00
 -1.06201650E-14  5.74203249E-14  0.00000000E+00  0.00000000E+00 -8.61851995E-15
 -1.69437787E-14  0.00000000E+00  0.00000000E+00  9.10804904E-15  5.90486978E-01
 -5.90486978E-01  6.94762666E-15  0.00000000E+00  0.00000000E+00  0.00000000E+00
  3.02319008E-15  2.07282386E-14  0.00000000E+00  0.00000000E+00 -4.82704333E-15
 -6.47182066E-14  0.00000000E+00  0.00000000E+00  2.53600228E-14  6.36886869E-01
 -6.36886869E-01  9.41344779E-15  0.00000000E+00  0.00000000E+00  0.00000000E+00
 -3.02319008E-15 -2.07282386E-14  0.00000000E+00  0.00000000E+00 -4.82704333E-15
  6.47182066E-14  0.00000000E+00  0.00000000E+00  2.53600228E-14 -6.36886869E-01
  6.36886869E-01 -9.41344779E-15  0.00000000E+00  0.00000000E+00  0.00000000E+00
  0.00000000E+00  0.00000000E+00  0.00000000E+00  0.00000000E+00  0.00000000E+00
  0.00000000E+00  0.00000000E+00  0.00000000E+00  0.00000000E+00  0.00000000E+00
  0.00000000E+00  0.00000000E+00  7.35413610E-01  0.00000000E+00  0.00000000E+00
  0.00000000E+00  0.00000000E+00  0.00000000E+00  0.00000000E+00  0.00000000E+00
  0.00000000E+00  0.00000000E+00  0.00000000E+00  0.00000000E+00  0.00000000E+00
  0.00000000E+00  0.00000000E+00 -7.35413610E-01  0.00000000E+00  0.00000000E+00
  1.69139062E-02 -4.29844843E-01  0.00000000E+00  0.00000000E+00  4.99297120E-01
  3.49478307E-01  0.00000000E+00  0.00000000E+00 -3.48326789E-01 -3.73517472E-01
 -3.73517472E-01  4.79826622E-01  0.00000000E+00  0.00000000E+00  0.00000000E+00
  1.69139062E-02 -4.29844843E-01  0.00000000E+00  0.00000000E+00 -4.99297120E-01
  3.49478307E-01  0.00000000E+00  0.00000000E+00  3.48326789E-01 -3.73517472E-01
 -3.73517472E-01  4.79826622E-01  0.00000000E+00  0.00000000E+00  0.00000000E+00
  0.00000000E+00  0.00000000E+00  1.45397551E-01  0.00000000E+00  0.00000000E+00
  0.00000000E+00 -4.54965890E-01  0.00000000E+00  0.00000000E+00  0.00000000E+00
  0.00000000E+00  0.00000000E+00  0.00000000E+00  9.07592674E-01  0.00000000E+00
  0.00000000E+00  0.00000000E+00 -1.45397551E-01  0.00000000E+00  0.00000000E+00
  0.00000000E+00  4.54965890E-01  0.00000000E+00  0.00000000E+00  0.00000000E+00
  0.00000000E+00  0.00000000E+00  0.00000000E+00  9.07592674E-01  0.00000000E+00
  0.00000000E+00  0.00000000E+00  0.00000000E+00  1.45397551E-01  0.00000000E+00
  0.00000000E+00  0.00000000E+00 -4.54965890E-01  0.00000000E+00  0.00000000E+00
  0.00000000E+00  0.00000000E+00  0.00000000E+00  0.00000000E+00  9.07592674E-01
  0.00000000E+00  0.00000000E+00  0.00000000E+00 -1.45397551E-01  0.00000000E+00
  0.00000000E+00  0.00000000E+00  4.54965890E-01  0.00000000E+00  0.00000000E+00
  0.00000000E+00  0.00000000E+00  0.00000000E+00  0.00000000E+00  9.07592674E-01
 -3.50689627E-01 -3.93578841E-01  0.00000000E+00  0.00000000E+00  4.67073171E-02
  2.93745953E+00  0.00000000E+00  0.00000000E+00 -8.56092000E-02 -1.40937024E+00
 -1.40937024E+00 -1.11792146E+00  0.00000000E+00  0.00000000E+00  0.00000000E+00
 -3.50689627E-01 -3.93578841E-01  0.00000000E+00  0.00000000E+00 -4.67073171E-02
  2.93745953E+00  0.00000000E+00  0.00000000E+00  8.56092000E-02 -1.40937024E+00
 -1.40937024E+00 -1.11792146E+00  0.00000000E+00  0.00000000E+00  0.00000000E+00
 -8.58050533E-02  6.92416959E-01  0.00000000E+00  0.00000000E+00  5.03156374E-02
 -1.25012621E+00  0.00000000E+00  0.00000000E+00  1.82457136E+00  8.71476624E-02
  8.71476624E-02 -1.71048788E+00  0.00000000E+00  0.00000000E+00  0.00000000E+00
  8.58050533E-02 -6.92416959E-01  0.00000000E+00  0.00000000E+00  5.03156374E-02
  1.25012621E+00  0.00000000E+00  0.00000000E+00  1.82457136E+00 -8.71476624E-02
 -8.71476624E-02  1.71048788E+00  0.00000000E+00  0.00000000E+00  0.00000000E+00
 -4.59046235E-01 -1.63534218E+00  0.00000000E+00  0.00000000E+00  1.78955010E-01
  6.93296719E+00  0.00000000E+00  0.00000000E+00 -2.06766139E+00 -2.12618610E+00
 -2.12618610E+00 -8.49029616E-01  0.00000000E+00  0.00000000E+00  0.00000000E+00
  4.59046235E-01  1.63534218E+00  0.00000000E+00  0.00000000E+00  1.78955010E-01
 -6.93296719E+00  0.00000000E+00  0.00000000E+00 -2.06766139E+00  2.12618610E+00
  2.12618610E+00  8.49029616E-01  0.00000000E+00  0.00000000E+00  0.00000000E+00
Total SCF Density                          R   N=         465
  2.08870777E+00 -2.29720955E-01  6.39724424E-01 -5.96566871E-19  1.13745499E-18
  9.61700280E-01 -5.96566871E-19  1.13745499E-18  0.00000000E+00  9.61700280E-01
 -3.89719925E-02  7.43066531E-02 -8.41588064E-18 -8.41588064E-18  4.11915078E-01
 -2.10287968E-01  5.33639344E-01  2.86404878E-18  2.86404878E-18  1.87100043E-01
  4.85599835E-01 -3.04779294E-19  6.75224966E-19  6.39946026E-01  0.00000000E+00
 -5.77710724E-18  1.76611078E-18  4.26382187E-01 -3.04779294E-19  6.75224966E-19
  0.00000000E+00  6.39946026E-01 -5.77710724E-18  1.76611078E-18  0.00000000E+00
  4.26382187E-01 -1.99103520E-02  4.41104990E-02 -5.77710724E-18 -5.77710724E-18
  2.62544278E-01  1.15374922E-01 -3.94915813E-18 -3.94915813E-18  1.68395080E-01
 -2.06765745E-02  3.01485140E-02 -3.60595624E-19  6.41728012E-20  4.19222396E-03
  2.55672585E-02 -2.34230725E-19  3.66300086E-20  2.39293278E-03  1.48161058E-03
 -2.06765745E-02  3.01485140E-02  6.41728012E-20 -3.60595624E-19  4.19222396E-03
  2.55672585E-02  3.66300086E-20 -2.34230725E-19  2.39293278E-03  1.48161058E-03
  1.48161058E-03 -2.31896778E-02  3.32295212E-02 -3.09397209E-19 -3.09397209E-19
 -4.79609228E-02  1.11746365E-02 -1.93692411E-19 -1.93692411E-19 -3.03479166E-02
  1.49142350E-03  1.49142350E-03  8.67537185E-03  0.00000000E+00  0.00000000E+00
 -2.45240165E-19 -2.45240165E-19  0.00000000E+00  0.00000000E+00 -1.56381517E-19
 -1.56381517E-19  0.00000000E+00  0.00000000E+00  0.00000000E+00  0.00000000E+00
  2.37004480E-36 -4.44207862E-20  5.44588685E-20 -1.60208324E-02  0.00000000E+00
 -6.76601657E-19 -2.54399239E-19 -1.02159534E-02  0.00000000E+00 -4.22334939E-19
  1.69340930E-20  1.73449843E-22  1.10220459E-19  9.67676183E-21  6.32154932E-04
 -4.44207862E-20  5.44588685E-20  0.00000000E+00 -1.60208324E-02 -6.76601657E-19
 -2.54399239E-19  0.00000000E+00 -1.02159534E-02 -4.22334939E-19  1.73449843E-22
  1.69340930E-20  1.10220459E-19  9.67676183E-21  0.00000000E+00  6.32154932E-04
 -5.31933997E-03  1.40204466E-02  1.56514618E-19  1.56514618E-19  1.02246485E-02
  2.93486666E-02 -8.35187726E-20 -8.35187726E-20 -5.45604045E-03  1.41813207E-03
  1.41813207E-03 -4.35578065E-03  0.00000000E+00 -1.02057777E-19 -1.02057777E-19
  2.08870777E+00  1.40204466E-02 -3.83734801E-02 -6.35800640E-19 -6.35800640E-19
 -4.15350215E-02 -7.45526878E-02 -1.19580979E-20 -1.19580979E-20 -7.81188037E-04
 -4.55791681E-03 -4.55791681E-03  1.42707617E-02  0.00000000E+00  3.32809512E-19
  3.32809512E-19 -2.29720955E-01  6.39724424E-01 -1.56514618E-19  6.35800640E-19
 -9.27094721E-02  0.00000000E+00 -4.58289838E-18 -1.27238790E-18 -8.44099052E-02
  0.00000000E+00 -2.60950931E-18 -4.26522505E-19  2.71406795E-20  1.23809981E-18
 -2.61922562E-19 -1.71106453E-02  0.00000000E+00  5.96566871E-19 -1.13745499E-18
  9.61700280E-01 -1.56514618E-19  6.35800640E-19  0.00000000E+00 -9.27094721E-02
 -4.58289838E-18 -1.27238790E-18  0.00000000E+00 -8.44099052E-02 -2.60950931E-18
  2.71406795E-20 -4.26522505E-19  1.23809981E-18 -2.61922562E-19  0.00000000E+00
 -1.71106453E-02  5.96566871E-19 -1.13745499E-18  0.00000000E+00  9.61700280E-01
 -1.02246485E-02  4.15350215E-02 -4.58289838E-18 -4.58289838E-18 -3.92097001E-01
 -8.31214309E-02 -2.60950931E-18 -2.60950931E-18 -2.54881620E-01  1.77302229E-03
  1.77302229E-03  5.12449818E-02  0.00000000E+00  1.13637260E-18  1.13637260E-18
  3.89719925E-02 -7.43066531E-02 -8.41588064E-18 -8.41588064E-18  4.11915078E-01
  2.93486666E-02 -7.45526878E-02  1.27238790E-18  1.27238790E-18  8.31214309E-02
 -6.01132716E-02  1.15003996E-18  1.15003996E-18  7.51287925E-02 -5.66203893E-03
 -5.66203893E-03 -5.95557795E-03  0.00000000E+00 -5.18849886E-21 -5.18849886E-21
 -2.10287968E-01  5.33639344E-01 -2.86404878E-18 -2.86404878E-18 -1.87100043E-01
  4.85599835E-01  8.35187726E-20  1.19580979E-20 -8.44099052E-02  0.00000000E+00
 -2.60950931E-18 -1.15003996E-18 -7.12341473E-02  0.00000000E+00 -1.44178396E-18
 -2.92292807E-19 -1.58201965E-21  7.74322468E-19 -1.67841951E-19 -1.09646304E-02
  0.00000000E+00  3.04779294E-19 -6.75224966E-19  6.39946026E-01  0.00000000E+00
 -5.77710724E-18 -1.76611078E-18  4.26382187E-01  8.35187726E-20  1.19580979E-20
  0.00000000E+00 -8.44099052E-02 -2.60950931E-18 -1.15003996E-18  0.00000000E+00
 -7.12341473E-02 -1.44178396E-18 -1.58201965E-21 -2.92292807E-19  7.74322468E-19
 -1.67841951E-19  0.00000000E+00 -1.09646304E-02  3.04779294E-19 -6.75224966E-19
  0.00000000E+00  6.39946026E-01 -5.77710724E-18 -1.76611078E-18  0.00000000E+00
  4.26382187E-01  5.45604045E-03  7.81188037E-04 -2.60950931E-18 -2.60950931E-18
 -2.54881620E-01 -7.51287925E-02 -1.44178396E-18 -1.44178396E-18 -1.65421734E-01
 -1.03348779E-04 -1.03348779E-04  3.15929559E-02  0.00000000E+00  7.28095379E-19
  7.28095379E-19  1.99103520E-02 -4.41104990E-02 -5.77710724E-18 -5.77710724E-18
  2.62544278E-01 -1.15374922E-01 -3.94915813E-18 -3.94915813E-18  1.68395080E-01
  1.41813207E-03 -4.55791681E-03  4.26522505E-19 -2.71406795E-20 -1.77302229E-03
 -5.66203893E-03  2.92292807E-19  1.58201965E-21  1.03348779E-04 -3.40854892E-04
 -3.40854892E-04  4.63450942E-04  0.00000000E+00 -2.51413354E-21  1.42166447E-20
 -2.06765745E-02  3.01485140E-02  3.60595624E-19 -6.41728012E-20 -4.19222396E-03
  2.55672585E-02  2.34230725E-19 -3.66300086E-20 -2.39293278E-03  1.48161058E-03
  1.41813207E-03 -4.55791681E-03 -2.71406795E-20  4.26522505E-19 -1.77302229E-03
 -5.66203893E-03  1.58201965E-21  2.92292807E-19  1.03348779E-04 -3.40854892E-04
 -3.40854892E-04  4.63450942E-04  0.00000000E+00  1.42166447E-20 -2.51413354E-21
 -2.06765745E-02  3.01485140E-02 -6.41728012E-20  3.60595624E-19 -4.19222396E-03