hf/6-31G* opted                                                         
FOpt      RHF                                                         6-31G(d)            
Number of atoms                            I                6
Info1-9                                    I   N=           9
          21          13           0           0           0         110
           2           1           2
Charge                                     I                0
Multiplicity                               I                1
Number of electrons                        I               18
Number of alpha electrons                  I                9
Number of beta electrons                   I                9
Number of basis functions                  I               38
Number of independent functions            I               38
Number of point charges in /Mol/           I                0
Number of translation vectors              I                0
Atomic numbers                             I   N=           6
           7           1           1           7           1           1
Nuclear charges                            R   N=           6
  7.00000000E+00  1.00000000E+00  1.00000000E+00  7.00000000E+00  1.00000000E+00
  1.00000000E+00
Current cartesian coordinates              R   N=          18
  1.59594560E-16  1.33542867E+00 -1.38164582E-01  1.73866551E+00  1.91475239E+00
 -5.94108956E-01 -4.33716828E-01  2.05218226E+00  1.56126103E+00 -3.60822483E-16
 -1.33542867E+00 -1.38164582E-01  4.33716828E-01 -2.05218226E+00  1.56126103E+00
 -1.73866551E+00 -1.91475239E+00 -5.94108956E-01
Force Field                                I                0
Int Atom Types                             I   N=           6
           0           0           0           0           0           0
MM charges                                 R   N=           6
  0.00000000E+00  0.00000000E+00  0.00000000E+00  0.00000000E+00  0.00000000E+00
  0.00000000E+00
Integer atomic weights                     I   N=           6
          14           1           1          14           1           1
Real atomic weights                        R   N=           6
  1.40030740E+01  1.00782504E+00  1.00782504E+00  1.40030740E+01  1.00782504E+00
  1.00782504E+00
Atom fragment info                         I   N=           6
           0           0           0           0           0           0
Atom residue num                           I   N=           6
           0           0           0           0           0           0
Nuclear spins                              I   N=           6
           2           1           1           2           1           1
Nuclear ZEff                               R   N=           6
 -4.55000000E+00 -1.00000000E+00 -1.00000000E+00 -4.55000000E+00 -1.00000000E+00
 -1.00000000E+00
Nuclear ZNuc                               R   N=           6
  7.00000000E+00  1.00000000E+00  1.00000000E+00  7.00000000E+00  1.00000000E+00
  1.00000000E+00
Nuclear QMom                               R   N=           6
  2.04400000E+00  0.00000000E+00  0.00000000E+00  2.04400000E+00  0.00000000E+00
  0.00000000E+00
Nuclear GFac                               R   N=           6
  4.03761000E-01  2.79284600E+00  2.79284600E+00  4.03761000E-01  2.79284600E+00
  2.79284600E+00
MicOpt                                     I   N=           6
          -1          -1          -1          -1          -1          -1
Number of contracted shells                I               16
Number of primitive shells                 I               38
Pure/Cartesian d shells                    I                1
Pure/Cartesian f shells                    I                0
Highest angular momentum                   I                2
Largest degree of contraction              I                6
Shell types                                I   N=          16
           0          -1          -1           2           0           0
           0           0           0          -1          -1           2
           0           0           0           0
Number of primitives per shell             I   N=          16
           6           3           1           1           3           1
           3           1           6           3           1           1
           3           1           3           1
Shell to atom map                          I   N=          16
           1           1           1           1           2           2
           3           3           4           4           4           4
           5           5           6           6
Primitive exponents                        R   N=          38
  4.17351146E+03  6.27457911E+02  1.42902093E+02  4.02343293E+01  1.28202129E+01
  4.39043701E+00  1.16263619E+01  2.71627981E+00  7.72218397E-01  2.12031498E-01
  8.00000000E-01  1.87311370E+01  2.82539436E+00  6.40121692E-01  1.61277759E-01
  1.87311370E+01  2.82539436E+00  6.40121692E-01  1.61277759E-01  4.17351146E+03
  6.27457911E+02  1.42902093E+02  4.02343293E+01  1.28202129E+01  4.39043701E+00
  1.16263619E+01  2.71627981E+00  7.72218397E-01  2.12031498E-01  8.00000000E-01
  1.87311370E+01  2.82539436E+00  6.40121692E-01  1.61277759E-01  1.87311370E+01
  2.82539436E+00  6.40121692E-01  1.61277759E-01
Contraction coefficients                   R   N=          38
  1.83477216E-03  1.39946270E-02  6.85865518E-02  2.32240873E-01  4.69069948E-01
  3.60455199E-01 -1.14961182E-01 -1.69117479E-01  1.14585195E+00  1.00000000E+00
  1.00000000E+00  3.34946043E-02  2.34726953E-01  8.13757326E-01  1.00000000E+00
  3.34946043E-02  2.34726953E-01  8.13757326E-01  1.00000000E+00  1.83477216E-03
  1.39946270E-02  6.85865518E-02  2.32240873E-01  4.69069948E-01  3.60455199E-01
 -1.14961182E-01 -1.69117479E-01  1.14585195E+00  1.00000000E+00  1.00000000E+00
  3.34946043E-02  2.34726953E-01  8.13757326E-01  1.00000000E+00  3.34946043E-02
  2.34726953E-01  8.13757326E-01  1.00000000E+00
P(S=P) Contraction coefficients            R   N=          38
  0.00000000E+00  0.00000000E+00  0.00000000E+00  0.00000000E+00  0.00000000E+00
  0.00000000E+00  6.75797439E-02  3.23907296E-01  7.40895140E-01  1.00000000E+00
  0.00000000E+00  0.00000000E+00  0.00000000E+00  0.00000000E+00  0.00000000E+00
  0.00000000E+00  0.00000000E+00  0.00000000E+00  0.00000000E+00  0.00000000E+00
  0.00000000E+00  0.00000000E+00  0.00000000E+00  0.00000000E+00  0.00000000E+00
  6.75797439E-02  3.23907296E-01  7.40895140E-01  1.00000000E+00  0.00000000E+00
  0.00000000E+00  0.00000000E+00  0.00000000E+00  0.00000000E+00  0.00000000E+00
  0.00000000E+00  0.00000000E+00  0.00000000E+00
Coordinates of each shell                  R   N=          48
  6.93889390E-18  1.33542867E+00 -1.38164582E-01  6.93889390E-18  1.33542867E+00
 -1.38164582E-01  6.93889390E-18  1.33542867E+00 -1.38164582E-01  6.93889390E-18
  1.33542867E+00 -1.38164582E-01  1.73866551E+00  1.91475239E+00 -5.94108956E-01
  1.73866551E+00  1.91475239E+00 -5.94108956E-01 -4.33716828E-01  2.05218226E+00
  1.56126103E+00 -4.33716828E-01  2.05218226E+00  1.56126103E+00 -2.22044605E-16
 -1.33542867E+00 -1.38164582E-01 -2.22044605E-16 -1.33542867E+00 -1.38164582E-01
 -2.22044605E-16 -1.33542867E+00 -1.38164582E-01 -2.22044605E-16 -1.33542867E+00
 -1.38164582E-01  4.33716828E-01 -2.05218226E+00  1.56126103E+00  4.33716828E-01
 -2.05218226E+00  1.56126103E+00 -1.73866551E+00 -1.91475239E+00 -5.94108956E-01
 -1.73866551E+00 -1.91475239E+00 -5.94108956E-01
Constraint Structure                       R   N=          18
  1.38777878E-17  1.37113048E+00 -1.92702931E-01  1.83366496E+00  1.85739859E+00
 -1.92702934E-01 -5.95347954E-01  1.85739859E+00  1.54162345E+00 -1.38777878E-16
 -1.37113048E+00 -1.92702931E-01  5.95347954E-01 -1.85739859E+00  1.54162345E+00
 -1.83366496E+00 -1.85739859E+00 -1.92702934E-01
Num ILSW                                   I              100
ILSW                                       I   N=         100
           0           1           0           0           2           0
           0           0           0           0           0          -1
           0           0           0           0           2           0
           0           0           1           0           1           0
           1           0           0           0           0           0
           0           0      100000           0          -1           0
           0           0           0           0           0           0
           0           0           0           1           0           0
           0           0           1           0           0           0
           0           0           4          41           0           0
           0           0           0           0           0           0
           0           0           0           0           0           0
           0           0           0           0           0           0
           0           0           0           0           0           0
           0           0           0           0           0           0
           0           0           0           0           0           0
           0           0           0           0
Num RLSW                                   I               41
RLSW                                       R   N=          41
  1.00000000E+00  1.00000000E+00  1.00000000E+00  1.00000000E+00  1.00000000E+00
  0.00000000E+00  0.00000000E+00  1.00000000E+00  0.00000000E+00  0.00000000E+00
  0.00000000E+00  0.00000000E+00  1.00000000E+00  0.00000000E+00  0.00000000E+00
  0.00000000E+00  0.00000000E+00  1.00000000E+00  0.00000000E+00  0.00000000E+00
  0.00000000E+00  0.00000000E+00  1.00000000E+00  0.00000000E+00  0.00000000E+00
  0.00000000E+00  0.00000000E+00  1.00000000E+00  0.00000000E+00  0.00000000E+00
  0.00000000E+00  0.00000000E+00  1.00000000E+00  0.00000000E+00  0.00000000E+00
  0.00000000E+00  0.00000000E+00  0.00000000E+00  1.00000000E+00  1.00000000E+00
  0.00000000E+00
MxBond                                     I                3
NBond                                      I   N=           6
           3           1           1           3           1           1
IBond                                      I   N=          18
           2           3           4           1           0           0
           1           0           0           1           5           6
           4           0           0           4           0           0
RBond                                      R   N=          18
  1.00000000E+00  1.00000000E+00  1.00000000E+00  1.00000000E+00  0.00000000E+00
  0.00000000E+00  1.00000000E+00  0.00000000E+00  0.00000000E+00  1.00000000E+00
  1.00000000E+00  1.00000000E+00  1.00000000E+00  0.00000000E+00  0.00000000E+00
  1.00000000E+00  0.00000000E+00  0.00000000E+00
Virial Ratio                               R      2.001746468895371E+00
SCF Energy                                 R     -1.111693740030451E+02
Total Energy                               R     -1.111693740030451E+02
RMS Force                                  R      1.412183048220698E-05
RMS Density                                R      3.415630334114152E-09
External E-field                           R   N=          35
  0.00000000E+00  0.00000000E+00  0.00000000E+00  0.00000000E+00  0.00000000E+00
  0.00000000E+00  0.00000000E+00  0.00000000E+00  0.00000000E+00  0.00000000E+00
  0.00000000E+00  0.00000000E+00  0.00000000E+00  0.00000000E+00  0.00000000E+00
  0.00000000E+00  0.00000000E+00  0.00000000E+00  0.00000000E+00  0.00000000E+00
  0.00000000E+00  0.00000000E+00  0.00000000E+00  0.00000000E+00  0.00000000E+00
  0.00000000E+00  0.00000000E+00  0.00000000E+00  0.00000000E+00  0.00000000E+00
  0.00000000E+00  0.00000000E+00  0.00000000E+00  0.00000000E+00  0.00000000E+00
IOpCl                                      I                0
IROHF                                      I                0
Alpha Orbital Energies                     R   N=          38
 -1.55638745E+01 -1.55633864E+01 -1.25990099E+00 -1.00921631E+00 -6.79763592E-01
 -6.69588561E-01 -6.09635374E-01 -4.08587890E-01 -4.01302729E-01  2.23094083E-01
  2.59019067E-01  3.10164758E-01  3.33676812E-01  4.54188313E-01  9.00056452E-01
  9.34526940E-01  9.44417401E-01  9.76239952E-01  9.97219090E-01  1.09874746E+00
  1.18516105E+00  1.22451547E+00  1.23485863E+00  1.25107321E+00  1.32004692E+00
  1.52901279E+00  1.78333406E+00  1.79690340E+00  2.27778646E+00  2.30765537E+00
  2.51388708E+00  2.56185210E+00  2.64254545E+00  2.73557862E+00  2.93183905E+00
  3.03485838E+00  4.05063912E+00  4.26157840E+00
Alpha MO coefficients                      R   N=        1444
  7.03531733E-01  1.76621576E-02  6.65861918E-04 -6.81287547E-04  7.26318186E-04
 -7.27183251E-04 -5.14230079E-04  1.72194694E-04 -3.42957726E-04 -2.36941562E-03
 -2.67576229E-03 -2.34652110E-03 -2.32176848E-05  6.49741558E-05 -1.83908682E-05
  1.58285007E-04  4.04412420E-04  9.03730035E-05  3.99802095E-04  7.03531733E-01
  1.76621576E-02 -6.65861918E-04  6.81287547E-04  7.26318186E-04 -7.27183251E-04
  5.14230079E-04 -1.72194694E-04 -3.42957726E-04 -2.36941562E-03 -2.67576229E-03
 -2.34652110E-03 -2.32176848E-05 -6.49741558E-05  1.83908682E-05  9.03730035E-05
  3.99802095E-04  1.58285007E-04  4.04412420E-04  7.03635889E-01  1.73914807E-02
  6.51136801E-04 -3.91631681E-04  7.28692434E-04 -2.21958096E-03 -3.74094907E-04
  6.48905511E-04 -6.60231857E-04 -2.28450249E-03 -2.23359214E-03 -2.31510554E-03
 -2.59437752E-05  1.10873157E-04 -2.13598778E-05  2.35618889E-04  4.15681058E-04
  3.01781421E-04  4.69500078E-04 -7.03635889E-01 -1.73914807E-02  6.51136801E-04
 -3.91631681E-04 -7.28692434E-04  2.21958096E-03 -3.74094907E-04  6.48905511E-04
  6.60231857E-04  2.28450249E-03  2.23359214E-03  2.31510554E-03  2.59437752E-05
  1.10873157E-04 -2.13598778E-05 -3.01781421E-04 -4.69500078E-04 -2.35618889E-04
 -4.15681058E-04 -1.45202368E-01  3.03889723E-01  2.85136861E-02 -8.16790226E-02
  3.48860387E-02  2.66047124E-01  1.53761421E-02 -1.96100837E-02  2.05381915E-02
  2.22074305E-03  1.91518693E-02  2.12010747E-03  2.29402624E-03 -4.91000019E-03
  8.39515228E-04  8.19666063E-02 -2.71824494E-03  8.27184669E-02 -2.77974876E-03
 -1.45202368E-01  3.03889723E-01 -2.85136861E-02  8.16790226E-02  3.48860387E-02
  2.66047124E-01 -1.53761421E-02  1.96100837E-02  2.05381915E-02  2.22074305E-03
  1.91518693E-02  2.12010747E-03  2.29402624E-03  4.91000019E-03 -8.39515228E-04
  8.27184669E-02 -2.77974876E-03  8.19666063E-02 -2.71824494E-03 -1.32785415E-01
  2.80875697E-01  6.73391386E-02  1.16463003E-01  4.98092005E-02  3.40529410E-01
  3.25764734E-02  4.43809029E-02  3.38755141E-02  1.32629463E-02 -1.55246678E-02
  1.17223904E-02  5.61258504E-03 -7.02323336E-03  9.31252396E-03  1.30180901E-01
  1.48257732E-02  1.24950549E-01  1.53097456E-02  1.32785415E-01 -2.80875697E-01
  6.73391386E-02  1.16463003E-01 -4.98092005E-02 -3.40529410E-01  3.25764734E-02
  4.43809029E-02 -3.38755141E-02 -1.32629463E-02  1.55246678E-02 -1.17223904E-02
 -5.61258504E-03 -7.02323336E-03  9.31252396E-03 -1.24950549E-01 -1.53097456E-02
 -1.30180901E-01 -1.48257732E-02  1.18044761E-02 -3.21980413E-02 -8.80799518E-02
  1.54820773E-01  3.06414606E-01 -2.84004710E-02 -3.88063716E-02  7.05041180E-02
  1.64747922E-01 -1.36077778E-02 -1.62327679E-02  3.04192107E-02 -3.83560938E-03
  1.97171860E-03  2.66803064E-03 -7.69846275E-02 -4.10828136E-02  1.96990143E-01
  1.08546915E-01  1.18044761E-02 -3.21980413E-02  8.80799518E-02 -1.54820773E-01
  3.06414606E-01 -2.84004710E-02  3.88063716E-02 -7.05041180E-02  1.64747922E-01
 -1.36077778E-02 -1.62327679E-02  3.04192107E-02 -3.83560938E-03 -1.97171860E-03
 -2.66803064E-03  1.96990143E-01  1.08546915E-01 -7.69846275E-02 -4.10828136E-02
  1.78978209E-02 -4.30875567E-02  3.14332363E-01 -2.66171655E-02 -1.37744501E-01
 -4.47551898E-02  1.79981867E-01 -2.11699296E-02 -7.40945312E-02  2.48370219E-02
 -2.72609362E-03 -2.19909081E-02 -3.81785449E-03  4.80037748E-03 -1.18332852E-02
  1.64538127E-01  7.59314652E-02 -1.45144068E-01 -7.72238130E-02 -1.78978209E-02
  4.30875567E-02  3.14332363E-01 -2.66171655E-02  1.37744501E-01  4.47551898E-02
  1.79981867E-01 -2.11699296E-02  7.40945312E-02 -2.48370219E-02  2.72609362E-03
  2.19909081E-02  3.81785449E-03  4.80037748E-03 -1.18332852E-02  1.45144068E-01
  7.72238130E-02 -1.64538127E-01 -7.59314652E-02 -8.39868549E-04  5.83559644E-04
  1.63235236E-01  3.53949142E-01 -7.65022639E-02  2.02121003E-02  1.02101646E-01
  1.97698719E-01 -4.77409465E-02  2.90504055E-02 -2.82799254E-02  1.85187086E-03
  1.84635771E-02 -3.61541104E-03  1.10668143E-02  1.78113662E-01  1.09654433E-01
  2.00899096E-02  1.28153853E-02 -8.39868549E-04  5.83559644E-04 -1.63235236E-01
 -3.53949142E-01 -7.65022639E-02  2.02121003E-02 -1.02101646E-01 -1.97698719E-01
 -4.77409465E-02  2.90504055E-02 -2.82799254E-02  1.85187086E-03  1.84635771E-02
  3.61541104E-03 -1.10668143E-02  2.00899096E-02  1.28153853E-02  1.78113662E-01
  1.09654433E-01  4.56703102E-02 -1.14688277E-01  1.82017005E-01 -5.17019841E-02
  3.50921065E-01 -1.55778250E-01  1.71017446E-01 -8.91932011E-02  2.93604768E-01
 -6.49771230E-03 -2.88988015E-03  1.61091120E-02 -1.36909736E-02  1.22097937E-02
  1.42709376E-02 -2.56403569E-02 -2.48188304E-02  1.39333858E-01  1.23999421E-01
 -4.56703102E-02  1.14688277E-01  1.82017005E-01 -5.17019841E-02 -3.50921065E-01
  1.55778250E-01  1.71017446E-01 -8.91932011E-02 -2.93604768E-01  6.49771230E-03
  2.88988015E-03 -1.61091120E-02  1.36909736E-02  1.22097937E-02  1.42709376E-02
 -1.39333858E-01 -1.23999421E-01  2.56403569E-02  2.48188304E-02  3.35690121E-02
 -7.63578064E-02  3.31320864E-01 -1.64860750E-01  1.91700644E-01 -1.69239466E-01
  2.84598644E-01 -1.27312700E-01  1.81446881E-01  1.51995108E-02 -9.66523384E-05
 -4.47465184E-03  9.83944791E-03  1.32573211E-02 -1.74491404E-02  1.14626377E-01
  8.61547778E-02 -3.77164613E-02 -4.71320864E-02  3.35690121E-02 -7.63578064E-02
 -3.31320864E-01  1.64860750E-01  1.91700644E-01 -1.69239466E-01 -2.84598644E-01
  1.27312700E-01  1.81446881E-01  1.51995108E-02 -9.66523384E-05 -4.47465184E-03
  9.83944791E-03 -1.32573211E-02  1.74491404E-02 -3.77164613E-02 -4.71320864E-02
  1.14626377E-01  8.61547778E-02 -7.50685265E-02  6.76811815E-02  3.79287408E-02
  1.05883008E-01  1.05873910E-01  1.18777895E+00  1.75962050E-01  2.97752488E-01
  3.07012628E-01 -2.43465523E-02 -2.08205397E-02 -2.32956430E-02  5.55334070E-03
 -1.97464716E-03  2.66526724E-03 -1.32117081E-02 -6.50552441E-01 -1.95397082E-02
 -1.02405060E+00 -7.50685265E-02  6.76811815E-02 -3.79287408E-02 -1.05883008E-01
  1.05873910E-01  1.18777895E+00 -1.75962050E-01 -2.97752488E-01  3.07012628E-01
 -2.43465523E-02 -2.08205397E-02 -2.32956430E-02  5.55334070E-03  1.97464716E-03
 -2.66526724E-03 -1.95397082E-02 -1.02405060E+00 -1.32117081E-02 -6.50552441E-01
 -9.70957642E-02  8.52295176E-02  9.37516803E-02 -2.95253358E-02  6.45275044E-02
  1.57983317E+00  3.09183385E-01 -1.09109676E-01  2.36270135E-01 -2.15410936E-02
 -3.78013895E-02 -2.24402463E-02 -3.67807279E-03  3.44459107E-03  1.00631875E-03
 -4.07040045E-02 -1.01250730E+00 -2.39589922E-02 -7.97651306E-01  9.70957642E-02
 -8.52295176E-02  9.37516803E-02 -2.95253358E-02 -6.45275044E-02 -1.57983317E+00
  3.09183385E-01 -1.09109676E-01 -2.36270135E-01  2.15410936E-02  3.78013895E-02
  2.24402463E-02  3.67807279E-03  3.44459107E-03  1.00631875E-03  2.39589922E-02
  7.97651306E-01  4.07040045E-02  1.01250730E+00  1.56591199E-02 -2.01020427E-02
 -1.79526765E-01 -4.48468182E-03  1.42978014E-01 -2.56811847E-01 -7.02986273E-01
 -3.23815818E-02  4.31273853E-01 -1.69049826E-03  1.30063566E-03  8.28864287E-03
 -4.08925769E-03 -6.12902770E-04 -6.88311492E-03  2.40452932E-02  1.24172788E+00
 -3.37350959E-02 -8.40438851E-01  1.56591199E-02 -2.01020427E-02  1.79526765E-01
  4.48468182E-03  1.42978014E-01 -2.56811847E-01  7.02986273E-01  3.23815818E-02
  4.31273853E-01 -1.69049826E-03  1.30063566E-03  8.28864287E-03 -4.08925769E-03
  6.12902770E-04  6.88311492E-03 -3.37350959E-02 -8.40438851E-01  2.40452932E-02
  1.24172788E+00  1.87404074E-02 -1.75157009E-02  1.64955775E-01  3.56582782E-02
 -1.78917103E-01 -3.13492356E-01  4.89063407E-01  1.32755932E-01 -6.84763511E-01
  1.43067626E-02  5.96994120E-03 -1.14674697E-02 -8.13413124E-03  4.56929563E-04
 -7.08980780E-04 -1.98956911E-02 -1.04322514E+00  7.81252077E-03  1.23967458E+00
 -1.87404074E-02  1.75157009E-02  1.64955775E-01  3.56582782E-02  1.78917103E-01
  3.13492356E-01  4.89063407E-01  1.32755932E-01  6.84763511E-01 -1.43067626E-02
 -5.96994120E-03  1.14674697E-02  8.13413124E-03  4.56929563E-04 -7.08980780E-04
 -7.81252077E-03 -1.23967458E+00  1.98956911E-02  1.04322514E+00  5.99005834E-02
 -9.97277752E-02  3.69301605E-02  3.63500637E-01  6.99584391E-02 -9.12788791E-01
  7.00795945E-02  1.51619401E+00  2.39285225E-01 -1.19763783E-02  1.20565118E-02
 -4.50778290E-03  6.52480745E-03  1.33259737E-02  1.70406269E-02 -5.43983255E-02
 -2.62494886E-01 -2.76191457E-02 -6.19784032E-01 -5.99005834E-02  9.97277752E-02
  3.69301605E-02  3.63500637E-01 -6.99584391E-02  9.12788791E-01  7.00795945E-02
  1.51619401E+00 -2.39285225E-01  1.19763783E-02 -1.20565118E-02  4.50778290E-03
 -6.52480745E-03  1.33259737E-02  1.70406269E-02  2.76191457E-02  6.19784032E-01
  5.43983255E-02  2.62494886E-01  5.13134308E-03  1.61193409E-01 -6.99873107E-02
 -4.60929477E-01 -5.26029363E-02  9.61765097E-02  1.87862812E-01  7.60468985E-01
  1.76793837E-01 -1.35040830E-03  1.82059235E-01 -3.15917114E-02  1.09295920E-02
  2.98312035E-02 -2.80753304E-02 -1.89056364E-01  3.55445618E-02 -3.48849743E-01
  9.05891133E-02  5.13134308E-03  1.61193409E-01  6.99873107E-02  4.60929477E-01
 -5.26029363E-02  9.61765097E-02 -1.87862812E-01 -7.60468985E-01  1.76793837E-01
 -1.35040830E-03  1.82059235E-01 -3.15917114E-02  1.09295920E-02 -2.98312035E-02
  2.80753304E-02 -3.48849743E-01  9.05891133E-02 -1.89056364E-01  3.55445618E-02
 -1.78718628E-02  5.22228125E-02 -1.13250138E-01  2.43379693E-01 -3.64736639E-01
 -2.45490310E-02 -2.86725620E-01 -2.07432490E-01  5.92494689E-01  1.02017086E-01
 -2.55103171E-02 -5.78300519E-02  2.65082440E-03  6.03031353E-03 -6.07474991E-02
  2.84551795E-01 -4.53752886E-02 -4.84744071E-01  4.87084042E-02 -1.78718628E-02
  5.22228125E-02  1.13250138E-01 -2.43379693E-01 -3.64736639E-01 -2.45490310E-02
  2.86725620E-01  2.07432490E-01  5.92494689E-01  1.02017086E-01 -2.55103171E-02
 -5.78300519E-02  2.65082440E-03 -6.03031353E-03  6.07474991E-02 -4.84744071E-01
  4.87084042E-02  2.84551795E-01 -4.53752886E-02  9.49684963E-03 -4.74148172E-02
  3.77934084E-01 -2.85813462E-01  3.49716731E-01 -3.87329961E-01 -5.59862864E-01
  5.87807702E-01 -9.89931213E-02  4.64685620E-02 -9.86171366E-02 -5.16406474E-02
  3.20134212E-02 -7.65444176E-03 -7.27968593E-03  3.73804931E-01 -3.36779980E-02
 -2.30761387E-01 -2.00141391E-02 -9.49684963E-03  4.74148172E-02  3.77934084E-01
 -2.85813462E-01 -3.49716731E-01  3.87329961E-01 -5.59862864E-01  5.87807702E-01
  9.89931213E-02 -4.64685620E-02  9.86171366E-02  5.16406474E-02 -3.20134212E-02
 -7.65444176E-03 -7.27968593E-03  2.30761387E-01  2.00141391E-02 -3.73804931E-01
  3.36779980E-02 -3.11905476E-02  2.26822627E-01  1.43101353E-02 -4.85576654E-01
  1.53111983E-01 -7.75264824E-01  2.54392837E-01  1.10656028E+00 -3.82763913E-01
 -7.49482782E-03 -1.05984678E-01  9.03285047E-02 -8.73207033E-02  5.32788494E-02
 -2.83564576E-03 -5.40653684E-01  4.73951902E-02  2.51295547E-02 -6.71119770E-02
  3.11905476E-02 -2.26822627E-01  1.43101353E-02 -4.85576654E-01 -1.53111983E-01
  7.75264824E-01  2.54392837E-01  1.10656028E+00  3.82763913E-01  7.49482782E-03
  1.05984678E-01 -9.03285047E-02  8.73207033E-02  5.32788494E-02 -2.83564576E-03
 -2.51295547E-02  6.71119770E-02  5.40653684E-01 -4.73951902E-02  9.71690886E-03
  2.06533920E-01 -5.34440713E-01  2.51215675E-02 -2.83048044E-01 -3.55583499E-01
  9.55499985E-01 -8.63038639E-02  1.10030416E-01  8.54524616E-03  6.78241053E-02
  1.01958650E-01  2.04345252E-03 -1.46308967E-02  7.96399315E-02 -1.14015200E-01
 -4.39495650E-03  3.00036367E-01 -7.14652935E-02  9.71690886E-03  2.06533920E-01
  5.34440713E-01 -2.51215675E-02 -2.83048044E-01 -3.55583499E-01 -9.55499985E-01
  8.63038639E-02  1.10030416E-01  8.54524616E-03  6.78241053E-02  1.01958650E-01
  2.04345252E-03  1.46308967E-02 -7.96399315E-02  3.00036367E-01 -7.14652935E-02
 -1.14015200E-01 -4.39495650E-03 -1.50939787E-02  2.46206867E-01 -2.27048339E-01
 -2.95802008E-01 -3.33877280E-01 -7.85391475E-01  1.38530125E-01  1.10331432E+00
  1.11884223E+00  1.23486903E-01 -3.32691752E-02 -1.71950196E-02  7.40625408E-02
  6.05213069E-02 -2.62963791E-03  1.49687844E-01 -2.54373564E-01 -4.96271189E-01
 -2.11011334E-01  1.50939787E-02 -2.46206867E-01 -2.27048339E-01 -2.95802008E-01
  3.33877280E-01  7.85391475E-01  1.38530125E-01  1.10331432E+00 -1.11884223E+00
 -1.23486903E-01  3.32691752E-02  1.71950196E-02 -7.40625408E-02  6.05213069E-02
 -2.62963791E-03  4.96271189E-01  2.11011334E-01 -1.49687844E-01  2.54373564E-01
 -2.98586442E-02  1.17998521E-01 -2.80528362E-01  2.96757539E-01  4.73131073E-01
 -1.61364458E-01  8.06733603E-01 -2.23121724E-01 -5.64890488E-01 -1.07997869E-02
 -5.98968717E-03  3.22714957E-02  1.25075317E-02  7.81113061E-02 -1.18423723E-01
 -2.96003483E-01 -3.13604264E-01 -4.70120636E-01  7.93981726E-01 -2.98586442E-02
  1.17998521E-01  2.80528362E-01 -2.96757539E-01  4.73131073E-01 -1.61364458E-01
 -8.06733603E-01  2.23121724E-01 -5.64890488E-01 -1.07997869E-02 -5.98968717E-03
  3.22714957E-02  1.25075317E-02 -7.81113061E-02  1.18423723E-01 -4.70120636E-01
  7.93981726E-01 -2.96003483E-01 -3.13604264E-01 -1.62872594E-02  3.42284674E-01
  4.15403256E-01  2.47243382E-01 -2.69566592E-01 -6.36626651E-01 -3.45412863E-01
 -1.94880281E-01  3.35514863E-01 -4.35891626E-02  8.04390055E-02  1.22299501E-01
 -1.29336894E-02  8.05088231E-02  4.80157129E-02 -6.77158823E-01  9.43580293E-01
 -3.08149149E-02 -2.14113400E-01 -1.62872594E-02  3.42284674E-01 -4.15403256E-01
 -2.47243382E-01 -2.69566592E-01 -6.36626651E-01  3.45412863E-01  1.94880281E-01
  3.35514863E-01 -4.35891626E-02  8.04390055E-02  1.22299501E-01 -1.29336894E-02
 -8.05088231E-02 -4.80157129E-02 -3.08149149E-02 -2.14113400E-01 -6.77158823E-01
  9.43580293E-01 -7.52340575E-03  2.73432461E-01 -3.92446180E-01  2.10139176E-01
  5.54566964E-01 -4.49257276E-01  5.60200493E-01 -4.12895611E-01 -9.35235737E-01
  8.09013718E-02  8.95304852E-02 -1.30152750E-02  4.52272402E-02  3.81900559E-02
 -2.41400823E-02  4.07246499E-02 -4.47388153E-01 -4.44311157E-01  1.21603814E+00
  7.52340575E-03 -2.73432461E-01 -3.92446180E-01  2.10139176E-01 -5.54566964E-01
  4.49257276E-01  5.60200493E-01 -4.12895611E-01  9.35235737E-01 -8.09013718E-02
 -8.95304852E-02  1.30152750E-02 -4.52272402E-02  3.81900559E-02 -2.41400823E-02
  4.44311157E-01 -1.21603814E+00 -4.07246499E-02  4.47388153E-01 -1.57255115E-02
  5.33631581E-01  4.71273805E-01  3.08294838E-01 -6.51281693E-02 -9.73040832E-01
 -6.72339290E-01 -5.48937483E-01  3.50673937E-01  7.13732503E-02  1.52235903E-01
  5.83820058E-02 -6.21838463E-02  7.41380108E-02 -2.81353446E-03 -3.96924608E-01
  1.11074574E+00 -3.61665124E-01  2.87305058E-01  1.57255115E-02 -5.33631581E-01
  4.71273805E-01  3.08294838E-01  6.51281693E-02  9.73040832E-01 -6.72339290E-01
 -5.48937483E-01 -3.50673937E-01 -7.13732503E-02 -1.52235903E-01 -5.83820058E-02
  6.21838463E-02  7.41380108E-02 -2.81353446E-03  3.61665124E-01 -2.87305058E-01
  3.96924608E-01 -1.11074574E+00 -5.55633621E-02 -1.05229804E+00 -9.58545558E-02
 -3.21249893E-02 -2.10073222E-01  2.43931984E+00  6.45697771E-01  3.28402555E-01
  3.80603712E-01 -2.38083828E-01 -2.80211758E-01 -9.86185292E-02  1.32804477E-03
  8.43819739E-02 -4.24809324E-02 -3.21564393E-01 -6.44255973E-01 -6.85985165E-02
 -7.64631926E-01 -5.55633621E-02 -1.05229804E+00  9.58545558E-02  3.21249893E-02
 -2.10073222E-01  2.43931984E+00 -6.45697771E-01 -3.28402555E-01  3.80603712E-01
 -2.38083828E-01 -2.80211758E-01 -9.86185292E-02  1.32804477E-03 -8.43819739E-02
  4.24809324E-02 -6.85985165E-02 -7.64631926E-01 -3.21564393E-01 -6.44255973E-01
 -8.13425625E-02 -1.04876786E+00 -2.10593658E-02  8.32703422E-02 -3.18603490E-02
  3.90649374E+00  1.08530645E-01 -1.30065625E+00  4.49413403E-01 -1.49306079E-01
 -1.62289069E-01 -2.41942690E-01 -1.03989460E-01  3.00369979E-01 -1.29230122E-02
 -2.29433059E-01 -2.07794920E-01 -3.72154679E-01 -3.17735028E-01  8.13425625E-02
  1.04876786E+00 -2.10593658E-02  8.32703422E-02  3.18603490E-02 -3.90649374E+00
  1.08530645E-01 -1.30065625E+00 -4.49413403E-01  1.49306079E-01  1.62289069E-01
  2.41942690E-01  1.03989460E-01  3.00369979E-01 -1.29230122E-02  3.72154679E-01
  3.17735028E-01  2.29433059E-01  2.07794920E-01 -5.29067298E-03 -2.07302070E-02
  8.48040694E-02 -5.19416319E-03  8.76477177E-03  1.50040907E-01  1.26769031E-01
 -1.09579905E-01 -2.01192957E-01 -1.92237320E-01 -1.57528036E-03  1.74192862E-01
  5.56920880E-01  2.52922233E-01 -6.10135982E-03 -1.58266830E-01 -2.61056884E-02
  1.06940930E-01  7.44535322E-02  5.29067298E-03  2.07302070E-02  8.48040694E-02
 -5.19416319E-03 -8.76477177E-03 -1.50040907E-01  1.26769031E-01 -1.09579905E-01
  2.01192957E-01  1.92237320E-01  1.57528036E-03 -1.74192862E-01 -5.56920880E-01
  2.52922233E-01 -6.10135982E-03 -1.06940930E-01 -7.44535322E-02  1.58266830E-01
  2.61056884E-02 -1.40298414E-02 -1.65234360E-01 -3.53288515E-02  4.47212040E-02
  1.03915284E-01  4.05771421E-01  1.25432970E-01  3.40889875E-02  7.63582843E-02
  2.16173335E-01 -3.42238069E-03 -2.95244059E-01 -7.04913818E-03  2.04020746E-01
  5.34500447E-01 -7.00763478E-02 -1.52660556E-01 -2.00727241E-01 -1.64160716E-02