b3lyp/lanl2dz+6-31G* opted                                              
SP        RB3LYP                                                      6-31G(d)            
Number of atoms                            I                8
Info1-9                                    I   N=           9
          16          15           0           0           0         110
           1          18        -502
Charge                                     I                0
Multiplicity                               I                1
Number of electrons                        I               20
Number of alpha electrons                  I               10
Number of beta electrons                   I               10
Number of basis functions                  I               40
Number of independent functions            I               40
Number of point charges in /Mol/           I                0
Number of translation vectors              I                0
Atomic numbers                             I   N=           8
           7           1           1           7           1           1
           1           1
Nuclear charges                            R   N=           8
  7.00000000E+00  1.00000000E+00  1.00000000E+00  7.00000000E+00  1.00000000E+00
  1.00000000E+00  1.00000000E+00  1.00000000E+00
Current cartesian coordinates              R   N=          24
  0.00000000E+00  3.02491864E+00  2.97571962E+00 -1.56777349E+00  3.10132026E+00
  4.09490047E+00  1.56777349E+00  3.10132026E+00  4.09490047E+00  0.00000000E+00
 -3.02491864E+00  2.97571962E+00  1.56777349E+00 -3.10132026E+00  4.09490047E+00
 -1.56777349E+00 -3.10132026E+00  4.09490047E+00  0.00000000E+00 -4.58632186E+00
  1.82290542E+00  0.00000000E+00  4.58632186E+00  1.82290542E+00
Force Field                                I                0
Int Atom Types                             I   N=           8
           0           0           0           0           0           0
           0           0
MM charges                                 R   N=           8
  0.00000000E+00  0.00000000E+00  0.00000000E+00  0.00000000E+00  0.00000000E+00
  0.00000000E+00  0.00000000E+00  0.00000000E+00
Integer atomic weights                     I   N=           8
          14           1           1          14           1           1
           1           1
Real atomic weights                        R   N=           8
  1.40030740E+01  1.00782504E+00  1.00782504E+00  1.40030740E+01  1.00782504E+00
  1.00782504E+00  1.00782504E+00  1.00782504E+00
Atom fragment info                         I   N=           8
           0           0           0           0           0           0
           0           0
Atom residue num                           I   N=           8
           0           0           0           0           0           0
           0           0
Nuclear spins                              I   N=           8
           2           1           1           2           1           1
           1           1
Nuclear ZEff                               R   N=           8
 -4.55000000E+00 -1.00000000E+00 -1.00000000E+00 -4.55000000E+00 -1.00000000E+00
 -1.00000000E+00 -1.00000000E+00 -1.00000000E+00
Nuclear ZNuc                               R   N=           8
  7.00000000E+00  1.00000000E+00  1.00000000E+00  7.00000000E+00  1.00000000E+00
  1.00000000E+00  1.00000000E+00  1.00000000E+00
Nuclear QMom                               R   N=           8
  2.04400000E+00  0.00000000E+00  0.00000000E+00  2.04400000E+00  0.00000000E+00
  0.00000000E+00  0.00000000E+00  0.00000000E+00
Nuclear GFac                               R   N=           8
  4.03761000E-01  2.79284600E+00  2.79284600E+00  4.03761000E-01  2.79284600E+00
  2.79284600E+00  2.79284600E+00  2.79284600E+00
MicOpt                                     I   N=           8
          -1          -1          -1          -1          -1          -1
          -1          -1
Number of contracted shells                I               20
Number of primitive shells                 I               46
Pure/Cartesian d shells                    I                0
Pure/Cartesian f shells                    I                0
Highest angular momentum                   I                2
Largest degree of contraction              I                6
Shell types                                I   N=          20
           0          -1          -1          -2           0           0
           0           0           0          -1          -1          -2
           0           0           0           0           0           0
           0           0
Number of primitives per shell             I   N=          20
           6           3           1           1           3           1
           3           1           6           3           1           1
           3           1           3           1           3           1
           3           1
Shell to atom map                          I   N=          20
           1           1           1           1           2           2
           3           3           4           4           4           4
           5           5           6           6           7           7
           8           8
Primitive exponents                        R   N=          46
  4.17351146E+03  6.27457911E+02  1.42902093E+02  4.02343293E+01  1.28202129E+01
  4.39043701E+00  1.16263619E+01  2.71627981E+00  7.72218397E-01  2.12031498E-01
  8.00000000E-01  1.87311370E+01  2.82539436E+00  6.40121692E-01  1.61277759E-01
  1.87311370E+01  2.82539436E+00  6.40121692E-01  1.61277759E-01  4.17351146E+03
  6.27457911E+02  1.42902093E+02  4.02343293E+01  1.28202129E+01  4.39043701E+00
  1.16263619E+01  2.71627981E+00  7.72218397E-01  2.12031498E-01  8.00000000E-01
  1.87311370E+01  2.82539436E+00  6.40121692E-01  1.61277759E-01  1.87311370E+01
  2.82539436E+00  6.40121692E-01  1.61277759E-01  1.87311370E+01  2.82539436E+00
  6.40121692E-01  1.61277759E-01  1.87311370E+01  2.82539436E+00  6.40121692E-01
  1.61277759E-01
Contraction coefficients                   R   N=          46
  1.83477216E-03  1.39946270E-02  6.85865518E-02  2.32240873E-01  4.69069948E-01
  3.60455199E-01 -1.14961182E-01 -1.69117479E-01  1.14585195E+00  1.00000000E+00
  1.00000000E+00  3.34946043E-02  2.34726953E-01  8.13757326E-01  1.00000000E+00
  3.34946043E-02  2.34726953E-01  8.13757326E-01  1.00000000E+00  1.83477216E-03
  1.39946270E-02  6.85865518E-02  2.32240873E-01  4.69069948E-01  3.60455199E-01
 -1.14961182E-01 -1.69117479E-01  1.14585195E+00  1.00000000E+00  1.00000000E+00
  3.34946043E-02  2.34726953E-01  8.13757326E-01  1.00000000E+00  3.34946043E-02
  2.34726953E-01  8.13757326E-01  1.00000000E+00  3.34946043E-02  2.34726953E-01
  8.13757326E-01  1.00000000E+00  3.34946043E-02  2.34726953E-01  8.13757326E-01
  1.00000000E+00
P(S=P) Contraction coefficients            R   N=          46
  0.00000000E+00  0.00000000E+00  0.00000000E+00  0.00000000E+00  0.00000000E+00
  0.00000000E+00  6.75797439E-02  3.23907296E-01  7.40895140E-01  1.00000000E+00
  0.00000000E+00  0.00000000E+00  0.00000000E+00  0.00000000E+00  0.00000000E+00
  0.00000000E+00  0.00000000E+00  0.00000000E+00  0.00000000E+00  0.00000000E+00
  0.00000000E+00  0.00000000E+00  0.00000000E+00  0.00000000E+00  0.00000000E+00
  6.75797439E-02  3.23907296E-01  7.40895140E-01  1.00000000E+00  0.00000000E+00
  0.00000000E+00  0.00000000E+00  0.00000000E+00  0.00000000E+00  0.00000000E+00
  0.00000000E+00  0.00000000E+00  0.00000000E+00  0.00000000E+00  0.00000000E+00
  0.00000000E+00  0.00000000E+00  0.00000000E+00  0.00000000E+00  0.00000000E+00
  0.00000000E+00
Coordinates of each shell                  R   N=          60
  0.00000000E+00  3.02491864E+00  2.97571962E+00  0.00000000E+00  3.02491864E+00
  2.97571962E+00  0.00000000E+00  3.02491864E+00  2.97571962E+00  0.00000000E+00
  3.02491864E+00  2.97571962E+00 -1.56777349E+00  3.10132026E+00  4.09490047E+00
 -1.56777349E+00  3.10132026E+00  4.09490047E+00  1.56777349E+00  3.10132026E+00
  4.09490047E+00  1.56777349E+00  3.10132026E+00  4.09490047E+00  0.00000000E+00
 -3.02491864E+00  2.97571962E+00  0.00000000E+00 -3.02491864E+00  2.97571962E+00
  0.00000000E+00 -3.02491864E+00  2.97571962E+00  0.00000000E+00 -3.02491864E+00
  2.97571962E+00  1.56777349E+00 -3.10132026E+00  4.09490047E+00  1.56777349E+00
 -3.10132026E+00  4.09490047E+00 -1.56777349E+00 -3.10132026E+00  4.09490047E+00
 -1.56777349E+00 -3.10132026E+00  4.09490047E+00  0.00000000E+00 -4.58632186E+00
  1.82290542E+00  0.00000000E+00 -4.58632186E+00  1.82290542E+00  0.00000000E+00
  4.58632186E+00  1.82290542E+00  0.00000000E+00  4.58632186E+00  1.82290542E+00
Constraint Structure                       R   N=          24
  0.00000000E+00  3.02491864E+00  2.97571962E+00 -1.56777349E+00  3.10132026E+00
  4.09490047E+00  1.56777349E+00  3.10132026E+00  4.09490047E+00  0.00000000E+00
 -3.02491864E+00  2.97571962E+00  1.56777349E+00 -3.10132026E+00  4.09490047E+00
 -1.56777349E+00 -3.10132026E+00  4.09490047E+00  0.00000000E+00 -4.58632186E+00
  1.82290542E+00  0.00000000E+00  4.58632186E+00  1.82290542E+00
Num ILSW                                   I              100
ILSW                                       I   N=         100
           0           0           0           0           2           0
           0           0           0           0         402          -1
           0           0           0           0           0           0
           0           0           1           0           0           0
           1           1           0           0           0           0
           0           0      100000           0          -1           0
           0           0           0           0           0           0
           0           0           0           1           0           0
           0           0           1           0           0           0
           0           0           4          41           0           0
           0           0           5           0           0           0
           0           0           0           0           0           0
           0           0           0           0           0           0
           0           0           0           0           0           0
           0           0           0           0           0           0
           0           0           0           0           0           0
           0           0           0           0
Num RLSW                                   I               41
RLSW                                       R   N=          41
  8.00000000E-01  7.20000000E-01  1.00000000E+00  8.10000000E-01  2.00000000E-01
  0.00000000E+00  0.00000000E+00  1.00000000E+00  0.00000000E+00  0.00000000E+00
  0.00000000E+00  0.00000000E+00  1.00000000E+00  0.00000000E+00  0.00000000E+00
  0.00000000E+00  0.00000000E+00  1.00000000E+00  0.00000000E+00  0.00000000E+00
  0.00000000E+00  0.00000000E+00  1.00000000E+00  0.00000000E+00  0.00000000E+00
  0.00000000E+00  0.00000000E+00  1.00000000E+00  0.00000000E+00  0.00000000E+00
  0.00000000E+00  0.00000000E+00  1.00000000E+00  0.00000000E+00  0.00000000E+00
  0.00000000E+00  0.00000000E+00  0.00000000E+00  1.00000000E+00  1.00000000E+00
  0.00000000E+00
MxBond                                     I                3
NBond                                      I   N=           8
           3           1           1           3           1           1
           1           1
IBond                                      I   N=          24
           2           3           8           1           0           0
           1           0           0           5           6           7
           4           0           0           4           0           0
           4           0           0           1           0           0
RBond                                      R   N=          24
  1.00000000E+00  1.00000000E+00  1.00000000E+00  1.00000000E+00  0.00000000E+00
  0.00000000E+00  1.00000000E+00  0.00000000E+00  0.00000000E+00  1.00000000E+00
  1.00000000E+00  1.00000000E+00  1.00000000E+00  0.00000000E+00  0.00000000E+00
  1.00000000E+00  0.00000000E+00  0.00000000E+00  1.00000000E+00  0.00000000E+00
  0.00000000E+00  1.00000000E+00  0.00000000E+00  0.00000000E+00
Virial Ratio                               R      2.006102302409655E+00
SCF Energy                                 R     -1.130846347105470E+02
Total Energy                               R     -1.130846347105470E+02
RMS Density                                R      8.581778698001127E-09
External E-field                           R   N=          35
  0.00000000E+00  0.00000000E+00  0.00000000E+00  0.00000000E+00  0.00000000E+00
  0.00000000E+00  0.00000000E+00  0.00000000E+00  0.00000000E+00  0.00000000E+00
  0.00000000E+00  0.00000000E+00  0.00000000E+00  0.00000000E+00  0.00000000E+00
  0.00000000E+00  0.00000000E+00  0.00000000E+00  0.00000000E+00  0.00000000E+00
  0.00000000E+00  0.00000000E+00  0.00000000E+00  0.00000000E+00  0.00000000E+00
  0.00000000E+00  0.00000000E+00  0.00000000E+00  0.00000000E+00  0.00000000E+00
  0.00000000E+00  0.00000000E+00  0.00000000E+00  0.00000000E+00  0.00000000E+00
IOpCl                                      I                0
IROHF                                      I                0
Alpha Orbital Energies                     R   N=          40
 -1.42795175E+01 -1.42795073E+01 -8.24468297E-01 -8.22230358E-01 -4.42268842E-01
 -4.40197282E-01 -4.38852445E-01 -4.35346733E-01 -2.37176235E-01 -2.11002150E-01
  7.73185935E-02  1.07580832E-01  1.67718404E-01  1.74857879E-01  1.84246932E-01
  1.93356517E-01  6.23857097E-01  6.83630562E-01  7.03475134E-01  7.35535122E-01
  7.41080268E-01  8.67669402E-01  9.05924719E-01  9.17861398E-01  9.18032216E-01
  9.25753258E-01  9.46626939E-01  9.76813342E-01  1.22286311E+00  1.26878454E+00
  1.69607498E+00  1.69634845E+00  1.69795975E+00  1.70100762E+00  1.99734629E+00
  2.00265032E+00  2.39469861E+00  2.39633300E+00  2.43190242E+00  2.43487135E+00
Alpha MO coefficients                      R   N=        1600
  7.03700593E-01  2.18469921E-02  1.38325993E-16  9.88856897E-04  7.04489737E-04
 -1.29808183E-02  7.88450299E-16 -1.37437375E-03 -1.12154904E-03  1.18991496E-06
  9.50686206E-16  2.43249961E-05 -3.91016128E-05  2.52216726E-16 -1.79497319E-04
  2.78322995E-03 -1.79497319E-04  2.78322995E-03 -7.03700595E-01 -2.18469921E-02
  1.55746967E-16  9.88856900E-04 -7.04489738E-04  1.29808183E-02  9.18591706E-16
 -1.37437375E-03  1.12154905E-03 -1.18991495E-06  1.22443536E-15  2.43249962E-05
  3.91016128E-05 -1.41372476E-16  1.79497319E-04 -2.78322995E-03  1.79497319E-04
 -2.78322995E-03  1.94594848E-04 -2.51577911E-03 -1.94594848E-04  2.51577910E-03
  7.03699218E-01  2.17153586E-02 -9.53027084E-16  1.12792397E-03  6.97925581E-04
 -1.27416205E-02  8.44935520E-16 -1.72439556E-03 -9.58698392E-04 -2.71296216E-06
 -1.12904884E-16  6.03557771E-05 -8.48101587E-06 -5.46865962E-16 -1.93882407E-04
  2.59474891E-03 -1.93882407E-04  2.59474891E-03  7.03699217E-01  2.17153585E-02
  2.63867042E-16 -1.12792397E-03  6.97925579E-04 -1.27416204E-02 -6.58133145E-16
  1.72439556E-03 -9.58698389E-04 -2.71296216E-06 -9.90822616E-17 -6.03557771E-05
 -8.48101579E-06  2.54559765E-16 -1.93882407E-04  2.59474891E-03 -1.93882407E-04
  2.59474891E-03 -1.44541988E-04  2.73564851E-03 -1.44541989E-04  2.73564851E-03
 -1.41437084E-01  2.94565451E-01  9.35103553E-16  6.26344105E-02  4.23136331E-02
  3.06999621E-01 -1.88518084E-15  3.29297465E-02  2.14077030E-02  3.40391528E-04
 -4.28905716E-16 -6.03998745E-03  4.76226277E-03 -2.59313604E-17  9.87425374E-02
  9.91218698E-03  9.87425374E-02  9.91218698E-03 -1.41437084E-01  2.94565451E-01
 -1.84755930E-16 -6.26344105E-02  4.23136331E-02  3.06999621E-01 -1.38145526E-16
 -3.29297465E-02  2.14077030E-02  3.40391528E-04 -2.62015666E-16  6.03998745E-03
  4.76226277E-03 -4.35514901E-17  9.87425374E-02  9.91218698E-03  9.87425374E-02
  9.91218698E-03  9.70522440E-02  8.19956075E-03  9.70522440E-02  8.19956076E-03
 -1.41755889E-01  2.95623337E-01  2.61687189E-16  6.48048615E-02  4.21509080E-02
  3.09498091E-01 -2.70181261E-15  3.69453686E-02  2.20567632E-02  5.41471918E-04
 -8.57247978E-16 -6.04785067E-03  5.04388467E-03 -1.65767431E-16  9.93925987E-02
  7.44750832E-03  9.93925987E-02  7.44750832E-03  1.41755889E-01 -2.95623337E-01
  2.82028573E-17  6.48048615E-02 -4.21509080E-02 -3.09498091E-01 -3.49975117E-16
  3.69453686E-02 -2.20567632E-02 -5.41471918E-04  1.17176684E-16 -6.04785067E-03
 -5.04388467E-03  2.75563670E-16 -9.93925987E-02 -7.44750832E-03 -9.93925987E-02
 -7.44750832E-03 -9.78796077E-02 -7.93180276E-03  9.78796077E-02  7.93180276E-03
  6.71912182E-16  1.12860510E-15  3.37197532E-01 -5.61142272E-15  9.53622681E-15
 -1.14856256E-14  1.69627930E-01 -4.11937120E-15  3.00012756E-15  5.55991541E-17
  2.22129186E-02  4.82037186E-16  5.56647355E-16  1.30714542E-02 -1.71858973E-01
 -1.21641937E-01  1.71858973E-01  1.21641937E-01  6.02981083E-16  1.06341127E-15
  3.37197532E-01 -4.27469622E-16 -1.92665006E-16 -9.65420822E-15  1.69627930E-01
  2.15840179E-16 -2.44628989E-15 -3.47813167E-16  2.22129186E-02  2.01337940E-16
 -1.77182047E-16 -1.30714542E-02  1.71858973E-01  1.21641937E-01 -1.71858973E-01
 -1.21641937E-01 -7.83342500E-16  2.46020044E-15 -6.57792319E-15 -3.41282158E-16
  8.26472446E-04 -1.24547025E-03 -2.34298531E-13 -1.88013365E-01  2.79599919E-01
 -5.33664137E-03 -1.17787555E-13 -9.56418111E-02  1.41546945E-01  1.12908553E-02
 -1.56644612E-14  1.43085985E-02  1.77207406E-02 -9.56803520E-15  9.72063990E-02
  7.13320124E-02  9.72063990E-02  7.13320124E-02  8.26472446E-04 -1.24547025E-03
  2.23396706E-13  1.88013365E-01  2.79599919E-01 -5.33664137E-03  1.12813649E-13
  9.56418111E-02  1.41546945E-01  1.12908553E-02  1.47666600E-14 -1.43085985E-02
  1.77207406E-02 -9.12212269E-15  9.72063990E-02  7.13320124E-02  9.72063990E-02
  7.13320124E-02 -1.98773027E-01 -1.39931509E-01 -1.98773027E-01 -1.39931509E-01
  7.35075436E-16 -7.26259103E-16  3.40364257E-01 -1.46263950E-13  2.21265556E-13
 -4.71880578E-15  1.72160629E-01 -7.41076977E-14  1.10666587E-13  9.10120414E-15
  2.24306534E-02  1.16171701E-14  1.39229212E-14  1.39158548E-02 -1.73482971E-01
 -1.18902071E-01  1.73482971E-01  1.18902071E-01  4.99007599E-16 -1.24124017E-15
 -3.40364257E-01  1.04222209E-13  1.53768785E-13 -1.71208328E-15 -1.72160629E-01
  5.34212807E-14  7.75014729E-14  6.37798656E-15 -2.24306534E-02 -7.87252774E-15
  9.66791812E-15  1.39158548E-02 -1.73482971E-01 -1.18902071E-01  1.73482971E-01
  1.18902071E-01 -1.10004597E-13 -7.80056162E-14 -1.56777940E-13 -1.11643953E-13
 -5.08464612E-04  1.38029469E-03 -4.50519009E-14 -1.79529323E-01  2.88456156E-01
  1.10147185E-03 -2.53619495E-14 -9.05078680E-02  1.48020286E-01  1.18463126E-02
 -3.62706242E-15  1.53899263E-02  1.86642739E-02 -1.95960545E-15  1.01286414E-01
  6.81114446E-02  1.01286414E-01  6.81114446E-02  5.08464612E-04 -1.38029469E-03
  3.46033352E-14 -1.79529323E-01 -2.88456156E-01 -1.10147185E-03  1.84171583E-14
 -9.05078680E-02 -1.48020286E-01 -1.18463126E-02  2.14641105E-15  1.53899263E-02
 -1.86642739E-02 -1.50184985E-15 -1.01286414E-01 -6.81114446E-02 -1.01286414E-01
 -6.81114446E-02  1.99026740E-01  1.40820024E-01 -1.99026740E-01 -1.40820024E-01
  4.46581162E-02 -9.88276148E-02 -2.42587130E-16  3.20800945E-01  2.18346559E-01
 -1.83563088E-01  1.12311041E-15  2.84492219E-01  1.87241827E-01 -1.66773234E-04
 -5.80741944E-17  1.81090983E-02 -1.19607885E-02  7.58725866E-17  4.63179247E-02
  3.21129876E-02  4.63179247E-02  3.21129876E-02  4.46581162E-02 -9.88276148E-02
 -5.71579215E-16 -3.20800945E-01  2.18346559E-01 -1.83563088E-01 -3.03166646E-16
 -2.84492219E-01  1.87241827E-01 -1.66773234E-04  3.96367668E-17 -1.81090983E-02
 -1.19607885E-02  1.43975387E-16  4.63179247E-02  3.21129876E-02  4.63179247E-02
  3.21129876E-02  3.64862927E-02  3.00583408E-02  3.64862927E-02  3.00583408E-02
  5.32559366E-02 -1.23471239E-01  8.21388453E-17  3.46207231E-01  2.13731573E-01
 -2.35006464E-01  1.94888765E-16  2.73973586E-01  1.84826177E-01 -2.78868780E-03
  2.29387748E-17  1.92461866E-02 -1.71313971E-02 -1.05616651E-16  3.62558436E-02
  5.44421840E-02  3.62558436E-02  5.44421840E-02 -5.32559366E-02  1.23471239E-01
  3.71680959E-16  3.46207231E-01 -2.13731573E-01  2.35006464E-01  7.60873085E-16
  2.73973586E-01 -1.84826177E-01  2.78868780E-03 -9.37563218E-18  1.92461866E-02
  1.71313971E-02  2.90981877E-16 -3.62558436E-02 -5.44421840E-02 -3.62558436E-02
 -5.44421840E-02 -5.07026754E-02 -6.47455711E-02  5.07026754E-02  6.47455711E-02
 -8.65384908E-02  1.28033549E-01  4.38124892E-14  8.04382330E-02  7.37224673E-02
  1.18571077E+00  1.51223858E-13  2.27024531E-01  1.67130863E-01  1.47495198E-03
  2.56334234E-15  9.59319180E-04  3.20320111E-03  2.22474590E-15 -3.45982641E-02
 -6.41322050E-01 -3.45982641E-02 -6.41322050E-01 -8.65384908E-02  1.28033549E-01
  4.64286182E-14 -8.04382330E-02  7.37224673E-02  1.18571077E+00  1.52662866E-13
 -2.27024531E-01  1.67130863E-01  1.47495198E-03  2.64015552E-15 -9.59319179E-04
  3.20320111E-03 -2.75849323E-15 -3.45982641E-02 -6.41322050E-01 -3.45982641E-02
 -6.41322050E-01 -5.27182538E-02 -5.78668634E-01 -5.27182538E-02 -5.78668634E-01
 -8.23958520E-02  1.13158037E-01  4.07606821E-15  1.58833816E-01  6.70984132E-02
  1.21173008E+00  3.16559771E-14  2.70394182E-01  1.46851118E-01 -2.18126246E-03
  6.64190233E-16  7.08227111E-04 -4.67420238E-03  2.71449269E-16 -5.38216796E-02
 -6.14082329E-01 -5.38216796E-02 -6.14082329E-01  8.23958520E-02 -1.13158037E-01
  1.63558303E-15  1.58833816E-01 -6.70984132E-02 -1.21173008E+00 -4.84163600E-15
  2.70394182E-01 -1.46851118E-01  2.18126246E-03 -9.53781198E-17  7.08227111E-04
  4.67420238E-03 -6.97742596E-17  5.38216796E-02  6.14082329E-01  5.38216796E-02
  6.14082329E-01  3.34642710E-02  6.96600444E-01 -3.34642710E-02 -6.96600444E-01
  1.66424075E-14 -5.44262006E-14  2.90859866E-01  7.95761783E-14 -1.77987308E-13
 -1.68068305E-13  7.15353244E-01  2.24405870E-13 -4.20291593E-13 -7.68653878E-15
  4.00682218E-03 -3.25230862E-15 -1.40511335E-15  1.34918454E-02  4.85736707E-02
  9.90321951E-01 -4.85736707E-02 -9.90321951E-01  1.34825026E-14 -4.23044151E-14
  2.90859866E-01 -6.97259031E-14 -1.48352393E-13 -1.37059658E-13  7.15353244E-01
 -1.88799684E-13 -3.50527521E-13 -6.39138091E-15  4.00682218E-03  2.55876843E-15
 -1.15610782E-15 -1.34918454E-02 -4.85736707E-02 -9.90321951E-01  4.85736707E-02
  9.90321951E-01 -2.06243337E-14 -5.61922996E-13 -2.61826328E-14 -6.64871191E-13
  3.87800015E-03 -1.14914144E-02  2.10442714E-13 -1.61499154E-01  2.41271402E-01
 -3.16482118E-02  5.07073348E-13 -3.97865020E-01  6.00848334E-01  1.13243008E-02
  2.68813948E-15  2.59902310E-03  1.20279584E-03  8.70364706E-15 -3.35526914E-02
 -5.50079853E-01 -3.35526914E-02 -5.50079853E-01  3.87800015E-03 -1.14914144E-02
  1.50321101E-13  1.61499154E-01  2.41271402E-01 -3.16482118E-02  3.45823064E-13
  3.97865020E-01  6.00848334E-01  1.13243008E-02  1.72628679E-15 -2.59902310E-03
  1.20279584E-03 -7.90918907E-15 -3.35526914E-02 -5.50079853E-01 -3.35526914E-02
 -5.50079853E-01  7.27190261E-02  1.16368056E+00  7.27190261E-02  1.16368056E+00
  5.99258316E-03 -1.42043503E-02 -5.37704353E-14  1.56734879E-01 -2.54734516E-01
 -7.73216760E-02 -1.43943643E-13  3.81791142E-01 -6.10944087E-01 -1.28618659E-02
 -1.16545613E-15 -2.31058079E-03 -3.29254117E-03 -2.24105882E-15  3.80110897E-02
  6.18726839E-01  3.80110897E-02  6.18726839E-01 -5.99258316E-03  1.42043503E-02
  2.27544275E-14  1.56734879E-01  2.54734516E-01  7.73216760E-02  6.47043871E-14
  3.81791142E-01  6.10944087E-01  1.28618659E-02  6.35136246E-16 -2.31058079E-03
  3.29254117E-03 -8.59653215E-16 -3.80110897E-02 -6.18726839E-01 -3.80110897E-02
 -6.18726839E-01  6.97562181E-02  1.11186591E+00 -6.97562181E-02 -1.11186591E+00
  1.97153190E-15 -1.66743210E-14  2.97761629E-01  3.46441168E-14 -6.20044796E-14
 -1.10014079E-15  7.39258472E-01  8.93675348E-14 -1.42676457E-13 -2.72628218E-15
  1.45473197E-03 -5.71259441E-16 -1.42130846E-16  1.08904889E-02  7.05003917E-02
  1.01899795E+00 -7.05003917E-02 -1.01899795E+00 -2.94345698E-15  1.47277977E-14
 -2.97761629E-01  4.01152823E-16  9.13028561E-15  1.89882395E-14 -7.39258472E-01
  6.59156443E-15  1.88242538E-14  5.10927689E-16 -1.45473197E-03  1.32286617E-16
  3.25234635E-16  1.08904889E-02  7.05003917E-02  1.01899795E+00 -7.05003917E-02
 -1.01899795E+00 -1.25024155E-15  2.03598358E-14 -1.55187613E-14 -2.65769276E-13
 -6.08465847E-03  7.56523102E-02  3.33884967E-15 -4.70691910E-01 -8.18016980E-03
 -6.77616674E-02  5.82978428E-15  6.56652901E-01 -3.90449696E-01 -4.51356045E-03
 -2.95727155E-15  3.84752604E-02  7.63235256E-02 -4.80568161E-16  2.34393369E-01
 -1.18602234E-02  2.34393369E-01 -1.18602234E-02 -6.08465847E-03  7.56523102E-02
 -1.71465485E-15  4.70691910E-01 -8.18016980E-03 -6.77616674E-02  1.71125807E-14
 -6.56652901E-01 -3.90449696E-01 -4.51356045E-03 -3.38725221E-15 -3.84752604E-02
  7.63235256E-02  1.49778914E-17  2.34393369E-01 -1.18602234E-02  2.34393369E-01
 -1.18602234E-02 -3.85302426E-01 -6.06009523E-03 -3.85302426E-01 -6.06009523E-03
 -1.26829403E-15  7.33292894E-15 -2.38875929E-01  2.06480489E-14  2.19348419E-14
 -5.49629363E-15  8.43307277E-01 -1.25292415E-14 -2.49129779E-14 -1.34318277E-15
 -1.15119199E-01  2.83962826E-15 -4.50144192E-16  5.19728242E-03  4.80025638E-01
 -2.20239217E-02 -4.80025638E-01  2.20239217E-02 -9.56743208E-16  4.36129258E-15
 -2.38875929E-01 -1.57366216E-14  1.47910156E-14  6.26422794E-16  8.43307277E-01
  1.21342863E-14 -1.17247803E-14 -1.22360730E-15 -1.15119199E-01 -1.57883138E-15
 -1.21453569E-15 -5.19728242E-03 -4.80025638E-01  2.20239217E-02  4.80025638E-01
 -2.20239217E-02 -4.09839304E-15 -6.40223952E-16 -1.17971932E-14 -1.06072917E-15
 -1.81149890E-02  9.74889741E-02 -2.23574792E-14 -3.97113924E-01 -4.39677469E-01
  9.75021202E-02  2.51636371E-14  2.52824265E-01  7.43705882E-01  1.49208321E-02
  1.71508811E-15 -4.48323753E-02 -4.79428599E-02  5.15815264E-17 -1.73652795E-01
 -6.64521530E-02 -1.73652795E-01 -6.64521530E-02 -1.81149890E-02  9.74889741E-02
 -2.96914687E-14  3.97113924E-01 -4.39677469E-01  9.75021202E-02  5.45555010E-14
 -2.52824265E-01  7.43705882E-01  1.49208321E-02 -3.74840089E-15  4.48323753E-02
 -4.79428599E-02  1.78058493E-16 -1.73652795E-01 -6.64521530E-02 -1.73652795E-01
 -6.64521530E-02  2.93373180E-01 -1.08385968E-01  2.93373180E-01 -1.08385968E-01
 -4.88878434E-16  7.39457174E-15 -2.65166556E-01  1.61096912E-14  2.32051762E-14
 -1.68603200E-14  8.38701818E-01  6.78827853E-15 -5.99444958E-14 -1.29248161E-15
 -1.30017220E-01  6.43096461E-15  8.66928641E-15  1.59489846E-02  4.72225965E-01
 -6.93229689E-02 -4.72225965E-01  6.93229689E-02 -1.19198647E-15 -1.51882356E-16
  2.65166556E-01  3.54267197E-14 -3.98804788E-14  2.24677865E-14 -8.38701818E-01
 -1.39984414E-14  8.81654984E-14  2.26073488E-15  1.30017220E-01  7.92477872E-15
 -1.01188566E-14  1.59489846E-02  4.72225965E-01 -6.93229689E-02 -4.72225965E-01
  6.93229689E-02  5.24445034E-14 -2.47036641E-14 -5.03977473E-14  2.05277029E-14
 -6.74945781E-03  1.00246706E-02 -3.49261750E-14 -2.34474854E-01 -3.43952001E-01
  1.24421025E-01  9.66032230E-14  1.38635557E-02  7.64802433E-01  1.92909258E-02
 -1.21494874E-14 -6.77571333E-02 -9.19646083E-02  1.85172121E-15 -2.40547364E-01
 -7.07615148E-03 -2.40547364E-01 -7.07615148E-03  6.74945781E-03 -1.00246706E-02
  2.42356835E-14 -2.34474854E-01  3.43952001E-01 -1.24421025E-01 -7.52804334E-14
  1.38635557E-02 -7.64802433E-01 -1.92909258E-02  1.15587360E-14 -6.77571333E-02
  9.19646083E-02  1.03471961E-15  2.40547364E-01  7.07615148E-03  2.40547364E-01
  7.07615148E-03 -4.97394579E-01  2.02797451E-01  4.97394579E-01 -2.02797451E-01
 -4.36457786E-02  1.18191258E-01  1.65941690E-14 -2.90001577E-01 -3.55577439E-01
  2.79688155E-01 -2.18063386E-14  6.14604067E-01  3.84742990E-01 -2.88943769E-02
 -1.46752431E-15  1.18440692E-01  1.97724557E-02  6.37028859E-16 -1.05230970E-01
 -2.11644846E-01 -1.05230970E-01 -2.11644846E-01  4.36457786E-02 -1.18191258E-01
 -1.42424382E-14 -2.90001577E-01  3.55577439E-01 -2.79688155E-01  1.95416045E-14
  6.14604067E-01 -3.84742990E-01  2.88943769E-02  4.07209300E-16  1.18440692E-01
 -1.97724557E-02 -8.98734675E-16  1.05230970E-01  2.11644846E-01  1.05230970E-01
  2.11644846E-01  6.35863813E-01 -3.58452083E-01 -6.35863813E-01  3.58452083E-01
  5.91976569E-02 -3.22247859E-01 -5.76480105E-13 -1.94461600E-01  1.50142748E-01
  1.98973676E-01  7.93058764E-13  4.04822136E-02 -3.18639032E-01  1.20082722E-02
  6.30436700E-14 -1.20314419E-01  3.77799124E-02 -1.51364295E-15  3.91271273E-01
 -8.89102299E-02  3.91271273E-01 -8.89102299E-02  5.91976569E-02 -3.22247859E-01
 -5.85053660E-13  1.94461600E-01  1.50142748E-01  1.98973676E-01  8.04037993E-13
 -4.04822136E-02 -3.18639032E-01  1.20082722E-02  6.71433786E-14  1.20314419E-01
  3.77799124E-02  6.19588086E-16  3.91271273E-01 -8.89102299E-02  3.91271273E-01
 -8.89102299E-02  6.70201068E-01 -6.60492509E-01  6.70201068E-01 -6.60492509E-01
  2.44849545E-02 -1.88304400E-01 -2.57181731E-12  2.90183998E-01 -5.71283404E-01
  1.99173442E-01  3.58129789E-12 -4.62313099E-01  7.27918660E-01 -1.26986940E-02
  3.00619615E-13  1.73296164E-02  9.21515197E-02 -3.87985763E-15  3.77472355E-01
 -6.05359981E-01  3.77472355E-01 -6.05359981E-01  2.44849545E-02 -1.88304400E-01
 -2.49346538E-12 -2.90183998E-01 -5.71283404E-01  1.99173442E-01  3.47197410E-12
  4.62313099E-01  7.27918660E-01 -1.26986940E-02  2.96679221E-13 -1.73296164E-02
  9.21515197E-02  4.30787096E-15  3.77472355E-01 -6.05359981E-01  3.77472355E-01