b3lyp/lanl2dz+6-31G* opted                                              
SP        RB3LYP                                                      6-31G(d)            
Number of atoms                            I                2
Info1-9                                    I   N=           9
          10           9           0           0           0         110
           1          18        -502
Charge                                     I               -2
Multiplicity                               I                1
Number of electrons                        I               36
Number of alpha electrons                  I               18
Number of beta electrons                   I               18
Number of basis functions                  I               36
Number of independent functions            I               36
Number of point charges in /Mol/           I                0
Number of translation vectors              I                0
Atomic numbers                             I   N=           2
          17          17
Nuclear charges                            R   N=           2
  1.70000000E+01  1.70000000E+01
Current cartesian coordinates              R   N=           6
  0.00000000E+00  3.28143195E+00 -2.63462216E+00  0.00000000E+00 -3.28143195E+00
 -2.63462216E+00
Force Field                                I                0
Int Atom Types                             I   N=           2
           0           0
MM charges                                 R   N=           2
  0.00000000E+00  0.00000000E+00
Integer atomic weights                     I   N=           2
          35          35
Real atomic weights                        R   N=           2
  3.49688527E+01  3.49688527E+01
Atom fragment info                         I   N=           2
           0           0
Atom residue num                           I   N=           2
           0           0
Nuclear spins                              I   N=           2
           3           3
Nuclear ZEff                               R   N=           2
 -1.42400000E+01 -1.42400000E+01
Nuclear ZNuc                               R   N=           2
  1.70000000E+01  1.70000000E+01
Nuclear QMom                               R   N=           2
 -8.16500000E+00 -8.16500000E+00
Nuclear GFac                               R   N=           2
  8.21874000E-01  8.21874000E-01
MicOpt                                     I   N=           2
          -1          -1
Number of contracted shells                I               10
Number of primitive shells                 I               34
Pure/Cartesian d shells                    I                0
Pure/Cartesian f shells                    I                0
Highest angular momentum                   I                2
Largest degree of contraction              I                6
Shell types                                I   N=          10
           0          -1          -1          -1          -2           0
          -1          -1          -1          -2
Number of primitives per shell             I   N=          10
           6           6           3           1           1           6
           6           3           1           1
Shell to atom map                          I   N=          10
           1           1           1           1           1           2
           2           2           2           2
Primitive exponents                        R   N=          34
  2.51801000E+04  3.78035000E+03  8.60474000E+02  2.42145000E+02  7.73349000E+01
  2.62470000E+01  4.91765000E+02  1.16984000E+02  3.74153000E+01  1.37834000E+01
  5.45215000E+00  2.22588000E+00  3.18649000E+00  1.14427000E+00  4.20377000E-01
  1.42657000E-01  7.50000000E-01  2.51801000E+04  3.78035000E+03  8.60474000E+02
  2.42145000E+02  7.73349000E+01  2.62470000E+01  4.91765000E+02  1.16984000E+02
  3.74153000E+01  1.37834000E+01  5.45215000E+00  2.22588000E+00  3.18649000E+00
  1.14427000E+00  4.20377000E-01  1.42657000E-01  7.50000000E-01
Contraction coefficients                   R   N=          34
  1.83295985E-03  1.40341988E-02  6.90973943E-02  2.37451980E-01  4.83033960E-01
  3.39855972E-01 -2.29739142E-03 -3.07137189E-02 -1.12528069E-01  4.50163278E-02
  5.89353363E-01  4.65206287E-01 -2.51828028E-01  6.15892514E-02  1.06018433E+00
  1.00000000E+00  1.00000000E+00  1.83295985E-03  1.40341988E-02  6.90973943E-02
  2.37451980E-01  4.83033960E-01  3.39855972E-01 -2.29739142E-03 -3.07137189E-02
 -1.12528069E-01  4.50163278E-02  5.89353363E-01  4.65206287E-01 -2.51828028E-01
  6.15892514E-02  1.06018433E+00  1.00000000E+00  1.00000000E+00
P(S=P) Contraction coefficients            R   N=          34
  0.00000000E+00  0.00000000E+00  0.00000000E+00  0.00000000E+00  0.00000000E+00
  0.00000000E+00  3.98940088E-03  3.03177067E-02  1.29880029E-01  3.27951072E-01
  4.53527100E-01  2.52154056E-01 -1.42993147E-02  3.23572333E-01  7.43507765E-01
  1.00000000E+00  0.00000000E+00  0.00000000E+00  0.00000000E+00  0.00000000E+00
  0.00000000E+00  0.00000000E+00  0.00000000E+00  3.98940088E-03  3.03177067E-02
  1.29880029E-01  3.27951072E-01  4.53527100E-01  2.52154056E-01 -1.42993147E-02
  3.23572333E-01  7.43507765E-01  1.00000000E+00  0.00000000E+00
Coordinates of each shell                  R   N=          30
  0.00000000E+00  3.28143195E+00 -2.63462216E+00  0.00000000E+00  3.28143195E+00
 -2.63462216E+00  0.00000000E+00  3.28143195E+00 -2.63462216E+00  0.00000000E+00
  3.28143195E+00 -2.63462216E+00  0.00000000E+00  3.28143195E+00 -2.63462216E+00
  0.00000000E+00 -3.28143195E+00 -2.63462216E+00  0.00000000E+00 -3.28143195E+00
 -2.63462216E+00  0.00000000E+00 -3.28143195E+00 -2.63462216E+00  0.00000000E+00
 -3.28143195E+00 -2.63462216E+00  0.00000000E+00 -3.28143195E+00 -2.63462216E+00
Constraint Structure                       R   N=           6
  0.00000000E+00  3.28143195E+00 -2.63462216E+00  0.00000000E+00 -3.28143195E+00
 -2.63462216E+00
Num ILSW                                   I              100
ILSW                                       I   N=         100
           0           0           0           0           2           0
           0           0           0           0         402          -1
           0           0           0           0           0           0
           0           0           1           0           0           0
           1           1           0           0           0           0
           0           0      100000           0          -1           0
           0           0           0           0           0           0
           0           0           0           1           0           0
           0           0           1           0           0           0
           0           0           4          41           0           0
           0           0           5           0           0           0
           0           0           0           0           0           0
           0           0           0           0           0           0
           0           0           0           0           0           0
           0           0           0           0           0           0
           0           0           0           0           0           0
           0           0           0           0
Num RLSW                                   I               41
RLSW                                       R   N=          41
  8.00000000E-01  7.20000000E-01  1.00000000E+00  8.10000000E-01  2.00000000E-01
  0.00000000E+00  0.00000000E+00  1.00000000E+00  0.00000000E+00  0.00000000E+00
  0.00000000E+00  0.00000000E+00  1.00000000E+00  0.00000000E+00  0.00000000E+00
  0.00000000E+00  0.00000000E+00  1.00000000E+00  0.00000000E+00  0.00000000E+00
  0.00000000E+00  0.00000000E+00  1.00000000E+00  0.00000000E+00  0.00000000E+00
  0.00000000E+00  0.00000000E+00  1.00000000E+00  0.00000000E+00  0.00000000E+00
  0.00000000E+00  0.00000000E+00  1.00000000E+00  0.00000000E+00  0.00000000E+00
  0.00000000E+00  0.00000000E+00  0.00000000E+00  1.00000000E+00  1.00000000E+00
  0.00000000E+00
MxBond                                     I                1
NBond                                      I   N=           2
           0           0
IBond                                      I   N=           2
           0           0
RBond                                      R   N=           2
  0.00000000E+00  0.00000000E+00
Virial Ratio                               R      2.001702971158554E+00
SCF Energy                                 R     -9.203466940951983E+02
Total Energy                               R     -9.203466940951983E+02
RMS Density                                R      5.819323653771127E-10
External E-field                           R   N=          35
  0.00000000E+00  0.00000000E+00  0.00000000E+00  0.00000000E+00  0.00000000E+00
  0.00000000E+00  0.00000000E+00  0.00000000E+00  0.00000000E+00  0.00000000E+00
  0.00000000E+00  0.00000000E+00  0.00000000E+00  0.00000000E+00  0.00000000E+00
  0.00000000E+00  0.00000000E+00  0.00000000E+00  0.00000000E+00  0.00000000E+00
  0.00000000E+00  0.00000000E+00  0.00000000E+00  0.00000000E+00  0.00000000E+00
  0.00000000E+00  0.00000000E+00  0.00000000E+00  0.00000000E+00  0.00000000E+00
  0.00000000E+00  0.00000000E+00  0.00000000E+00  0.00000000E+00  0.00000000E+00
IOpCl                                      I                0
IROHF                                      I                0
Alpha Orbital Energies                     R   N=          36
 -1.01018766E+02 -1.01018750E+02 -8.94534133E+00 -8.94529242E+00 -6.70284767E+00
 -6.70284767E+00 -6.70283239E+00 -6.70283239E+00 -6.70215130E+00 -6.70211647E+00
 -2.90750671E-01 -2.85748529E-01  1.51037036E-01  1.56743572E-01  1.56743572E-01
  1.64081017E-01  1.64081017E-01  1.86105404E-01  7.61480265E-01  8.00497487E-01
  8.56121667E-01  8.56121667E-01  8.69771239E-01  9.06584328E-01  9.06584328E-01
  1.06022288E+00  1.37103930E+00  1.37104699E+00  1.37129073E+00  1.37129842E+00
  1.37413245E+00  1.37413245E+00  1.37424082E+00  1.37424082E+00  1.37916040E+00
  1.39254357E+00
Alpha MO coefficients                      R   N=        1296
  7.04632878E-01  9.00186846E-03 -2.54383638E-16 -1.21559820E-05 -1.41830830E-16
 -3.03068933E-03 -4.07120046E-18  1.06613969E-04 -1.44226278E-17  1.60709064E-03
 -8.84090928E-17 -2.14742850E-04 -1.56255950E-16 -7.65510880E-06 -4.33220803E-18
 -3.79468411E-16 -1.32590374E-05 -9.34498983E-17 -7.04632866E-01 -9.00186830E-03
 -9.52524325E-17 -1.21559823E-05 -1.00679446E-16  3.03068928E-03  1.85989092E-16
  1.06613970E-04  2.24019895E-17 -1.60709062E-03 -6.48668661E-17 -2.14742851E-04
  7.73649225E-17  7.65510886E-06 -1.31301018E-18  3.81567892E-18  1.32590375E-05
 -4.34603476E-16  7.04639446E-01  9.00173474E-03  2.56900619E-16  1.75548137E-05
  2.17533648E-16 -2.84576816E-03 -1.66096645E-16 -4.58741399E-05 -2.18908382E-16
  1.34796623E-03  2.37768855E-16  8.77604349E-05  2.51902002E-16  3.44430852E-06
  6.20472866E-16 -8.62684240E-17  5.96571735E-06 -2.74477189E-18  7.04639458E-01
  9.00173490E-03  4.42386909E-17 -1.75548135E-05  2.85242768E-16 -2.84576821E-03
  4.64032634E-17  4.58741380E-05 -2.25026927E-16  1.34796626E-03 -1.16936339E-16
 -8.77604312E-05 -3.96654404E-18  3.44430838E-06  6.14751326E-16 -1.08906933E-17
  5.96571712E-06 -3.36457596E-19 -2.02105034E-01  7.26640418E-01 -1.58197836E-16
  1.42934636E-03 -1.06821943E-15  2.64572374E-02 -5.93519557E-16 -4.58177606E-04
 -6.71780879E-16 -9.91686873E-03 -1.18875088E-18  1.13772559E-03  8.21462071E-17
  4.83277227E-05  2.18057011E-17  1.22041196E-15  8.37060712E-05  3.39781863E-16
  2.02105034E-01 -7.26640418E-01  6.59978889E-16  1.42934636E-03  5.24867582E-16
 -2.64572374E-02  3.39016058E-16 -4.58177607E-04  2.95413313E-16  9.91686873E-03
 -1.03089077E-16  1.13772559E-03  6.34273837E-17 -4.83277227E-05  1.82260053E-17
  1.39057376E-15 -8.37060712E-05  4.90053975E-17 -2.02140963E-01  7.26637641E-01
  2.17923128E-16  1.28722794E-03  3.60534914E-15  2.54523354E-02  5.69350982E-16
  3.54078296E-04  9.02473300E-16 -8.48284393E-03  2.39962557E-16 -5.29958850E-04
 -5.75991770E-17 -7.13612949E-06  1.44575825E-16 -1.54286626E-16 -1.23601388E-05
  1.68553788E-16 -2.02140963E-01  7.26637641E-01 -1.78755025E-15 -1.28722794E-03
  1.50151667E-15  2.54523354E-02 -4.36166912E-16 -3.54078296E-04 -4.54561087E-16
 -8.48284393E-03 -1.95064606E-17  5.29958849E-04 -1.19441733E-17 -7.13612947E-06
 -4.26055906E-16  8.35283812E-17 -1.23601388E-05 -7.36167384E-17  6.60670044E-16
 -1.60923976E-15  7.00425665E-01  5.28855520E-13  2.16194982E-02  3.97104064E-15
  2.01605823E-02  1.35596624E-14  6.22281129E-04 -4.73837935E-15 -5.60997254E-03
 -1.10103372E-15 -1.73158691E-04  2.71537811E-16 -7.18736054E-17  3.72329293E-06
  4.37147236E-17  1.20626755E-04  6.87461614E-16 -2.92509485E-15 -7.00425664E-01
 -1.01888654E-12 -2.16194990E-02 -5.66698662E-15 -2.01605823E-02 -2.99748115E-14
 -6.22281153E-04  6.17686566E-15  5.60997254E-03  9.28195921E-15  1.73158697E-04
 -4.47084318E-16 -2.34302674E-18  3.72329303E-06 -1.58267585E-16  1.20626755E-04
  6.80644744E-15 -2.40655805E-14 -2.16194988E-02  1.16950063E-11  7.00425666E-01
  7.49660460E-15 -6.22281146E-04  3.30521510E-13  2.01605824E-02 -1.02188474E-14
  1.73158696E-04 -8.03428921E-14 -5.60997254E-03 -5.46729852E-17 -4.00854654E-16
  1.20626755E-04 -1.11258242E-15 -3.72329300E-06  5.74538597E-15 -2.06322261E-14
  2.16194984E-02 -9.66580930E-12 -7.00425664E-01  5.28130864E-16  6.22281136E-04
 -2.72895294E-13 -2.01605823E-02 -4.45295202E-15 -1.73158693E-04  6.34178665E-14
  5.60997253E-03 -1.27813533E-16 -6.13732929E-16  1.20626755E-04 -4.74284268E-16
 -3.72329296E-06  2.47986147E-16 -5.09656227E-16  7.00620048E-01  3.63794508E-13
  1.63459914E-02  3.68270382E-15  1.99077192E-02  8.70045573E-15  4.64462028E-04
 -4.54770979E-15 -5.12291089E-03  3.69650812E-16 -1.19521355E-04  1.42007453E-16
 -8.33715685E-17  1.93370593E-06  2.51965146E-16  8.28822860E-05  6.20435522E-16
 -2.63839202E-15  7.00620049E-01 -1.74874206E-12  1.63459911E-02 -2.60999480E-15
  1.99077193E-02 -5.04092518E-14  4.64462019E-04  2.98662101E-15 -5.12291090E-03
  1.46175753E-14 -1.19521353E-04 -3.03927364E-16 -3.06282206E-16 -1.93370588E-06
 -1.52324756E-16 -8.28822861E-05  3.80625656E-16 -2.35456061E-15 -1.63459908E-02
  1.82581265E-13  7.00620048E-01 -1.94963207E-15 -4.64462010E-04  7.34493976E-15
  1.99077192E-02  3.27446611E-15  1.19521350E-04 -4.86748670E-15 -5.12291089E-03
 -9.72950990E-17 -3.94380645E-16  8.28822859E-05 -4.15765311E-16 -1.93370583E-06
 -5.29837941E-16  1.59720618E-15 -1.63459917E-02  1.99640362E-12  7.00620049E-01
  5.63007495E-18 -4.64462036E-04  5.67764703E-14  1.99077193E-02 -4.66176081E-16
  1.19521357E-04 -1.66036731E-14 -5.12291090E-03  1.13071513E-16  1.73138036E-16
 -8.28822862E-05  3.90122819E-17  1.93370598E-06  3.56786132E-04 -1.43982130E-03
  9.94250933E-13  7.00682125E-01 -2.07932684E-12 -8.49745840E-04  2.85162008E-14
  2.06321471E-02 -5.98769164E-14  1.37073685E-03 -7.74413972E-15 -6.85517049E-03
  1.63321278E-14 -1.24308109E-04 -4.97848870E-18 -2.75932125E-15 -2.15307960E-04
 -1.59596685E-15 -3.56786132E-04  1.43982130E-03  4.41427860E-13  7.00682125E-01
 -6.69413839E-14  8.49745840E-04  1.25646434E-14  2.06321471E-02 -1.20497653E-15
 -1.37073685E-03 -3.37756107E-15 -6.85517048E-03 -5.17955929E-16  1.24308109E-04
  2.41610124E-17 -1.84875267E-15  2.15307960E-04 -1.01123273E-15  4.04649613E-04
 -1.42572065E-03 -1.52042569E-12  7.00830746E-01 -9.81663666E-12  4.59348726E-04
 -4.37889202E-14  1.97939208E-02 -2.83236345E-13 -6.75369545E-04  1.18460478E-14
 -4.74273979E-03  7.97565934E-14 -2.08377286E-05  8.93064234E-17 -5.95291673E-17
 -3.60920047E-05 -3.54879918E-15  4.04649613E-04 -1.42572065E-03 -6.33056405E-13
 -7.00830746E-01  1.15801428E-11  4.59348725E-04 -1.78921204E-14 -1.97939208E-02
  3.32794771E-13 -6.75369544E-04  4.46309729E-15  4.74273979E-03 -9.19173949E-14
 -2.08377287E-05 -1.49962620E-16 -3.52540160E-15 -3.60920048E-05  3.47763145E-15
  5.87208551E-02 -2.69474499E-01 -2.22391615E-17 -3.66159372E-03 -1.22310683E-16
  5.06862773E-01  5.06929345E-17  8.16695516E-03  3.90925294E-16  2.69064527E-01
  4.48379064E-16  1.11613053E-02  4.45232348E-16  3.70917046E-04  1.15294838E-16
 -5.96012897E-16  6.42447168E-04  1.16035629E-15  5.87208551E-02 -2.69474499E-01
  1.38607155E-16  3.66159372E-03 -9.39518415E-17  5.06862773E-01 -3.88326844E-16
 -8.16695516E-03 -6.54590065E-17  2.69064527E-01 -3.23861573E-16 -1.11613053E-02
 -5.63833164E-16  3.70917046E-04 -4.41527100E-17  6.27731104E-16  6.42447168E-04
 -1.17016752E-15  5.92326714E-02 -2.71548721E-01  4.17563802E-17 -6.32240489E-03
  8.77541885E-17  5.12818848E-01 -1.98094358E-16  1.40250944E-02 -3.81686966E-16
  2.69620682E-01  3.44586154E-16  1.57010942E-02  2.02879425E-16  8.75259186E-04
 -1.81096491E-17  1.07435116E-15  1.51599338E-03  8.00715914E-17 -5.92326714E-02
  2.71548721E-01 -2.08666176E-16 -6.32240489E-03 -6.63031113E-17 -5.12818848E-01
  5.78063767E-16  1.40250944E-02  2.81974393E-16 -2.69620682E-01 -1.09533982E-16
  1.57010942E-02 -2.24712665E-16 -8.75259186E-04  6.30805334E-17  8.21559310E-16
 -1.51599338E-03  1.39122784E-16 -8.42483366E-04  1.24518937E-03  9.00919300E-14
 -1.85064142E-01  5.08636509E-14 -1.74727177E-02 -2.20113352E-13  4.57906546E-01
 -1.25299722E-13  2.36384299E-02 -1.70329291E-13  3.18120641E-01 -9.23712279E-14
 -1.19835908E-03 -3.53874947E-17 -1.11522983E-15 -2.07561881E-03 -8.05347318E-16
 -8.42483366E-04  1.24518937E-03  3.27544432E-13  1.85064142E-01  2.53959164E-14
 -1.74727177E-02 -8.06934884E-13 -4.57906546E-01 -6.21894139E-14  2.36384299E-02
 -5.94406136E-13 -3.18120641E-01 -4.69610822E-14 -1.19835908E-03  8.64691247E-17
  1.51972292E-16 -2.07561881E-03  8.66902043E-15 -1.21906272E-15  1.88525316E-15
 -1.84239956E-01 -2.11265104E-13 -2.91784989E-02 -2.50310627E-14  4.53072038E-01
  5.22867123E-13  7.17540442E-02  3.21172520E-14  3.37409628E-01  3.61619398E-13
  5.34363265E-02 -6.45599517E-16 -1.49356815E-16  5.81906277E-04 -1.55270769E-15
  3.67429412E-03 -1.09806970E-15  1.61788014E-15 -1.84239956E-01  2.10963195E-13
 -2.91784989E-02 -2.29123458E-14  4.53072038E-01 -5.21997915E-13  7.17540442E-02
  3.04598638E-14  3.37409628E-01 -3.61356152E-13  5.34363265E-02 -9.71935599E-16
 -8.73880081E-17 -5.81906277E-04 -1.45845456E-15 -3.67429412E-03  2.15008611E-17
 -8.71641223E-17  2.91784989E-02 -5.06894008E-15 -1.84239956E-01  2.57063674E-16
 -7.17540442E-02  1.30982248E-14  4.53072038E-01  4.88156077E-17 -5.34363265E-02
  8.44087189E-15  3.37409628E-01 -2.28105746E-16  2.90774195E-16  3.67429412E-03
  1.63968766E-17 -5.81906277E-04  4.72146813E-17 -8.23173915E-17  2.91784989E-02
  4.62597826E-15 -1.84239956E-01  1.02079943E-15 -7.17540442E-02 -1.19161588E-14
  4.53072038E-01 -9.56181928E-16 -5.34363265E-02 -7.99583064E-15  3.37409628E-01
 -4.20720723E-17 -3.29762035E-16 -3.67429412E-03 -3.82866676E-17  5.81906277E-04
  8.03188221E-16 -1.36205001E-15 -1.88856584E-01  1.16616194E-13  2.50801785E-02
  1.60567672E-14  4.66729054E-01 -2.88719088E-13 -6.19816783E-02 -1.94707281E-14
  3.38111183E-01 -1.99178256E-13 -4.49012085E-02 -7.80902282E-17  9.99251349E-17
 -8.21802715E-04  2.02522227E-16  6.18826747E-03  9.24132824E-16 -1.47967756E-15
  1.88856584E-01 -1.16110454E-13 -2.50801785E-02  1.91361734E-14 -4.66729054E-01
  2.87589655E-13  6.19816783E-02 -2.35708080E-14 -3.38111183E-01  1.97344205E-13
  4.49012085E-02  2.79745985E-16 -1.45601820E-16 -8.21802715E-04  1.50817152E-16
  6.18826747E-03  1.12372622E-17 -2.20912874E-16 -2.50801785E-02  3.72116808E-15
 -1.88856584E-01 -6.13345191E-16  6.19816783E-02 -8.99651198E-15  4.66729054E-01
  1.57126365E-15  4.49012085E-02 -7.32564439E-15  3.38111183E-01  2.50831332E-16
 -1.88914669E-16  6.18826747E-03 -1.14784945E-16  8.21802715E-04  2.25599633E-16
 -3.71266544E-16  2.50801785E-02 -2.39059531E-15  1.88856584E-01  4.74644915E-15
 -6.19816783E-02  5.94685304E-15 -4.66729054E-01 -5.21231902E-15 -4.49012085E-02
  3.77891818E-15 -3.38111183E-01  8.01922970E-17  8.93308444E-16  6.18826747E-03
 -1.04583673E-16  8.21802715E-04 -5.86060197E-03  2.12523887E-02 -1.72240918E-16
 -1.96800232E-01 -3.59853047E-16 -7.58459458E-02  4.53591060E-16  4.89482977E-01
  8.94649180E-16  2.23602642E-02  2.28998685E-16  3.49608046E-01  4.92914039E-16
 -5.72442448E-03  1.01969431E-17  3.48066334E-15 -9.91499405E-03  1.85237957E-15
  5.86060197E-03 -2.12523887E-02  4.78644466E-16 -1.96800232E-01  7.80173100E-16
  7.58459458E-02 -1.21239038E-15  4.89482977E-01 -1.93696990E-15 -2.23602642E-02
 -7.82999359E-16  3.49608046E-01 -1.36643976E-15  5.72442448E-03 -5.89287753E-19
  3.90252163E-15  9.91499405E-03  1.75083243E-15 -5.76375468E-02  1.11863008E-01
 -1.05931191E-15 -3.07969045E-02 -3.05013752E-16 -1.14343549E+00  2.55387638E-15
  1.03417728E-01 -1.37468788E-15  1.15162630E+00  3.00445488E-15 -5.09734200E-02
  4.93821184E-15 -9.92346935E-03  5.87470812E-16  8.25762238E-15 -1.71879531E-02
 -1.52583105E-14 -5.76375468E-02  1.11863008E-01 -1.54622213E-15  3.07969045E-02
  2.44463525E-15 -1.14343549E+00  8.59404189E-15 -1.03417728E-01 -7.34173890E-15
  1.15162630E+00 -1.77439918E-14  5.09734200E-02  4.49199695E-15 -9.92346935E-03
 -1.43375594E-16 -8.18492769E-15 -1.71879531E-02  1.53794787E-14 -5.01729438E-02
  9.36387005E-02  4.20821009E-15  1.22782435E-01  2.72832350E-15 -1.01059207E+00
 -1.49787742E-14 -4.56026297E-01 -8.94928125E-15  1.03717038E+00  8.33860824E-15
  4.40636147E-01  1.78111468E-15 -1.20003509E-04  8.25981291E-16 -5.32026005E-15
 -2.07852175E-04 -1.22560226E-15  5.01729438E-02 -9.36387005E-02 -5.89424480E-17
  1.22782435E-01 -9.13785772E-16  1.01059207E+00 -1.17066440E-16 -4.56026297E-01
  2.72871210E-15 -1.03717038E+00  2.35525426E-15  4.40636147E-01  1.79066970E-15
  1.20003509E-04 -6.88351560E-16 -3.48525538E-15  2.07852175E-04 -6.47893871E-16
 -4.99398023E-16  9.09442032E-16  4.01185876E-02  1.55393395E-15 -2.22125062E-01
 -1.01186663E-14 -1.50151836E-01 -5.58391743E-15  8.31347462E-01  1.05179383E-14
  1.46273025E-01  4.79840968E-15 -8.09871600E-01 -1.89352396E-15  7.36182616E-16
  1.40245545E-02  5.22421948E-16 -2.53301142E-03 -3.44703764E-16  6.88438531E-16
  4.01185876E-02 -1.22145840E-15 -2.22125062E-01 -6.64874564E-15 -1.50151836E-01
  4.33741932E-15  8.31347462E-01  6.68312940E-15  1.46273025E-01 -3.81314290E-15
 -8.09871600E-01  3.69805122E-16 -6.54474965E-16 -1.40245545E-02 -3.57815414E-16
  2.53301142E-03 -7.34669132E-16  8.91790685E-16 -2.22125062E-01  1.84323651E-14
 -4.01185876E-02 -1.66130755E-14  8.31347462E-01 -6.84172016E-14  1.50151836E-01
  2.01830782E-14 -8.09871600E-01  6.25441374E-14 -1.46273025E-01  1.96087970E-15
 -9.35241378E-16  2.53301142E-03  1.21258271E-15  1.40245545E-02  9.59054688E-17
 -7.55259089E-16 -2.22125062E-01 -1.60481003E-14 -4.01185876E-02 -2.57973121E-16
  8.31347462E-01  5.96695006E-14  1.50151836E-01  3.93688112E-15 -8.09871600E-01
 -5.38032358E-14 -1.46273025E-01  7.82493633E-16  9.32901753E-17 -2.53301142E-03
  2.12542034E-15 -1.40245545E-02  9.58228322E-03 -1.13541394E-02 -2.25938669E-14
 -2.23461593E-01  9.85337330E-15  2.17901546E-01  8.47795667E-14  8.26147604E-01
 -3.57820342E-14 -2.65813792E-01 -8.44737546E-14 -7.50757657E-01  3.60719556E-14
 -1.98989033E-02 -6.49531155E-16 -6.58441879E-15 -3.44659116E-02  1.30383547E-14
  9.58228322E-03 -1.13541394E-02 -1.08807718E-14  2.23461593E-01 -1.88874804E-14
  2.17901546E-01  4.09153674E-14 -8.26147604E-01  7.06214392E-14 -2.65813792E-01
 -3.94630843E-14  7.50757657E-01 -7.16529727E-14 -1.98989033E-02 -8.52409306E-17
  7.81375269E-15 -3.44659116E-02 -1.33811028E-14  1.04902256E-15 -1.71397091E-15
  2.19072252E-01 -9.90800813E-15 -5.52616656E-02  2.19808061E-14 -8.33355550E-01
  3.65138068E-14  2.10216562E-01 -2.41320904E-14  8.61144172E-01 -3.39604126E-14
 -2.17226330E-01 -2.74145205E-16  6.45987988E-16 -2.78457169E-03 -8.71059074E-17
  1.10387985E-02  6.71795939E-16 -9.91507946E-16 -2.19072252E-01  7.83699618E-15
  5.52616656E-02  1.42441938E-14  8.33355550E-01 -2.87103891E-14 -2.10216562E-01
 -1.63699242E-14 -8.61144172E-01  2.57890169E-14  2.17226330E-01 -1.03741787E-15
 -3.37406133E-16 -2.78457169E-03 -6.66668034E-16  1.10387985E-02 -2.69637289E-16
  1.95745434E-17  5.52616656E-02  1.15088168E-14  2.19072252E-01 -7.65878238E-15
 -2.10216562E-01 -4.21838063E-14 -8.33355550E-01  1.06529068E-14  2.17226330E-01
  3.68202682E-14  8.61144172E-01  1.97829449E-15  1.05438757E-15  1.10387985E-02
  1.85431922E-15  2.78457169E-03 -4.74811421E-16  3.90195865E-16 -5.52616656E-02
 -1.36075451E-14 -2.19072252E-01 -1.20146898E-14  2.10216562E-01  5.05599554E-14
  8.33355550E-01  1.49854802E-14 -2.17226330E-01 -4.63356935E-14 -8.61144172E-01
  1.98998699E-15  1.57830888E-16  1.10387985E-02  2.95655810E-16  2.78457169E-03
  3.24981989E-02 -4.55581677E-02 -2.82527298E-16  1.87929873E-01 -8.59416266E-16
  7.14306195E-01  5.88013833E-16 -7.58020923E-01  1.94326455E-15 -8.24585502E-01
  6.10953552E-15  9.57491115E-01  5.92815968E-15 -6.34472246E-02  7.26379286E-16
 -6.05374158E-15 -1.09893817E-01 -2.69001209E-15 -3.24981989E-02  4.55581677E-02
 -3.07354774E-17  1.87929873E-01  1.74743375E-16 -7.14306195E-01  3.79450295E-16
 -7.58020923E-01 -2.64869005E-16  8.24585502E-01 -3.00945801E-15  9.57491115E-01
 -4.45201364E-15  6.34472246E-02  1.50855893E-16 -7.72401271E-15  1.09893817E-01
 -4.24818103E-16 -5.65515586E-17  1.69622328E-16  1.91826012E-15 -2.48621154E-15
 -2.39581065E-15 -9.56564140E-16 -7.74504212E-15  9.52445223E-15  8.13036492E-15
  5.49497110E-16  8.52624575E-15 -9.05410013E-15 -5.66884002E-15 -4.06879291E-12
  7.07106815E-01 -3.41938882E-13  2.44999135E-12  1.26729998E-13 -2.13002152E-16
  4.16604010E-16  1.55071513E-15  2.01156948E-15 -2.11527343E-15 -4.31460291E-15
 -5.40885460E-15 -7.71675605E-15  8.98290578E-15  4.22111299E-15  3.11033300E-15
  7.10450588E-15 -1.01545657E-14  4.54734968E-12 -7.07106815E-01  2.09550776E-13
 -2.52730001E-12 -3.23563144E-13 -1.18398056E-16 -7.03142822E-17 -3.06865108E-15
 -5.34792107E-16 -8.00407462E-17  3.42927739E-16  1.14114359E-14  2.14687920E-15
  2.59510512E-16 -3.31036029E-16 -1.13957741E-14 -2.35557300E-15  2.73755743E-15
 -1.24414959E-12  7.07106747E-01 -3.27717121E-13  7.41707636E-13 -1.63880627E-13
 -1.26905120E-16 -7.54801369E-17 -2.24163575E-15  5.01443855E-16 -2.19438697E-15
  6.28549693E-17  7.00144554E-15 -2.01946462E-15  8.03257256E-15  5.12726420E-17
 -3.71049145E-15  2.25985731E-15 -8.94764089E-15  6.68645574E-13  7.07106747E-01
 -9.45877792E-14 -3.68813324E-13  3.61803404E-13 -1.51335948E-16  4.20861690E-16
 -2.04181292E-15  5.31229023E-15 -2.12244241E-16 -1.00594129E-15  7.58527931E-15
 -1.78224383E-14  8.72450600E-16  8.26365844E-16 -4.64721991E-15  6.77281412E-15
 -1.09006957E-15  6.12372466E-01  6.08224739E-12  3.84548735E-14 -3.53553408E-01
 -4.75897643E-13  1.93202569E-15 -2.43071742E-15 -3.25039100E-15 -1.35493991E-14
 -5.91359021E-16  4.42658333E-14  1.22205462E-14  5.35930968E-14  2.03578947E-15
 -5.14897782E-14 -1.24908264E-14 -5.91727858E-14 -1.24575032E-15 -6.12372465E-01
 -3.87010465E-12  1.16417612E-14  3.53553407E-01  2.39061501E-13 -3.39182524E-16
  4.17696776E-16 -9.65557054E-17  3.55443721E-15 -4.20058694E-15 -7.62970123E-15
  1.60443425E-15 -1.32912356E-14  1.69892735E-14  9.47101128E-15 -4.81858298E-15
  1.28447070E-14 -1.83411407E-14  6.12372406E-01  1.16065301E-13 -7.52437049E-14
 -3.53553373E-01  2.66519060E-13 -2.15889030E-16  7.00904614E-17  1.30737221E-15
 -4.32420309E-15 -1.28662206E-15 -5.36274039E-15 -6.13571698E-15  1.63754441E-14
  4.01358945E-15  7.61448673E-15  8.89919428E-15 -1.69179558E-14  4.49010743E-16
  6.12372407E-01  5.68766671E-13  5.22921453E-13 -3.53553374E-01  1.49809168E-13
 -8.65864931E-16  1.84269792E-15  5.54137127E-03  1.60061562E-14 -2.87469613E-03
 -1.58141857E-14 -2.04708547E-02 -4.67321698E-14  1.06196614E-02  1.60652914E-14
  1.78862284E-02  4.68981339E-14 -9.27883534E-03 -3.68272075E-14 -1.47519614E-13
 -3.25552426E-01 -3.31822531E-13  6.27546976E-01 -1.21847087E-15  2.21465484E-15
  5.54137127E-03 -1.40734826E-14 -2.87469613E-03 -2.45116284E-14 -2.04708547E-02
  3.90635437E-14  1.06196614E-02  2.60590596E-14  1.78862284E-02 -3.66952076E-14
 -9.27883534E-03 -6.06141060E-13  5.07675678E-13  3.25552426E-01 -2.45415052E-14
 -6.27546976E-01 -3.15248852E-16  2.48797006E-16  2.87469613E-03 -4.40505092E-15
  5.54137127E-03 -9.30149596E-15 -1.06196614E-02  1.56424245E-14 -2.04708547E-02
  1.01795969E-14  9.27883534E-03 -1.66115132E-14  1.78862284E-02  3.81803029E-13
  3.66475844E-13  6.27546976E-01 -1.23261197E-13  3.25552426E-01  1.67197405E-18
  3.70233725E-16  2.87469613E-03  1.74154608E-15  5.54137127E-03  2.67012674E-15
 -1.06196614E-02 -6.99714340E-15 -2.04708547E-02 -4.09066821E-15  9.27883535E-03
  3.86318649E-15  1.78862284E-02  1.36133958E-13  8.37269477E-14 -6.27546976E-01
  6.39482546E-14 -3.25552426E-01  4.72792953E-16 -1.19867488E-15 -1.94223460E-03
  8.40863517E-15 -2.23096234E-03  4.20359000E-15  9.01278271E-03 -2.13822834E-14
  1.03526005E-02 -4.50637126E-15 -1.53770574E-02  1.75371558E-14 -1.76629723E-02
 -2.79629680E-13  2.09380803E-13  5.33240076E-01  9.95188649E-15  4.64228958E-01
  8.54953655E-17 -3.78868815E-17  1.94223460E-03  2.55737291E-15  2.23096234E-03
  6.41216313E-15 -9.01278271E-03  1.09920415E-15 -1.03526005E-02 -5.05785685E-15
  1.53770574E-02 -4.92330676E-15  1.76629723E-02 -3.72548599E-13 -2.02658990E-14
  5.33240076E-01  8.45550701E-14  4.64228958E-01 -3.39658678E-16  8.19350493E-16
 -2.23096234E-03 -6.83006965E-15  1.94223460E-03 -6.56297510E-15  1.03526005E-02
  2.36288981E-14 -9.01278271E-03  6.32203978E-15 -1.76629723E-02 -2.19488564E-14