b3lyp/lanl2dz+6-31G* opted                                              
FOpt      RB3LYP                                                      GenECP              
Number of atoms                            I               11
Info1-9                                    I   N=           9
          29          28           0           0           0         110
           2          18        -502
Charge                                     I                0
Multiplicity                               I                1
Number of electrons                        I               72
Number of alpha electrons                  I               36
Number of beta electrons                   I               36
Number of basis functions                  I               98
Number of independent functions            I               98
Number of point charges in /Mol/           I                0
Number of translation vectors              I                0
Atomic numbers                             I   N=          11
          78          17          17           7           1           1
           7           1           1           1           1
Nuclear charges                            R   N=          11
  1.80000000E+01  1.70000000E+01  1.70000000E+01  7.00000000E+00  1.00000000E+00
  1.00000000E+00  7.00000000E+00  1.00000000E+00  1.00000000E+00  1.00000000E+00
  1.00000000E+00
Current cartesian coordinates              R   N=          33
  2.46519033E-32  0.00000000E+00  3.57585174E-01  1.47911420E-31  3.28143132E+00
 -2.63462170E+00 -4.01846165E-16 -3.28143132E+00 -2.63462170E+00 -6.90253292E-31
  3.02491908E+00  2.97572038E+00 -1.56777284E+00  3.10132078E+00  4.09489988E+00
  1.56777284E+00  3.10132078E+00  4.09489988E+00 -3.70433512E-16 -3.02491908E+00
  2.97572038E+00  1.56777284E+00 -3.10132078E+00  4.09489988E+00 -1.56777284E+00
 -3.10132078E+00  4.09489988E+00  1.28189897E-30 -4.58632262E+00  1.82290467E+00
  5.61643983E-16  4.58632262E+00  1.82290467E+00
Force Field                                I                0
Int Atom Types                             I   N=          11
           0           0           0           0           0           0
           0           0           0           0           0
MM charges                                 R   N=          11
  0.00000000E+00  0.00000000E+00  0.00000000E+00  0.00000000E+00  0.00000000E+00
  0.00000000E+00  0.00000000E+00  0.00000000E+00  0.00000000E+00  0.00000000E+00
  0.00000000E+00
Integer atomic weights                     I   N=          11
         195          35          35          14           1           1
          14           1           1           1           1
Real atomic weights                        R   N=          11
  1.94964800E+02  3.49688527E+01  3.49688527E+01  1.40030740E+01  1.00782504E+00
  1.00782504E+00  1.40030740E+01  1.00782504E+00  1.00782504E+00  1.00782504E+00
  1.00782504E+00
Atom fragment info                         I   N=          11
           0           0           0           0           0           0
           0           0           0           0           0
Atom residue num                           I   N=          11
           0           0           0           0           0           0
           0           0           0           0           0
Nuclear spins                              I   N=          11
           1           3           3           2           1           1
           2           1           1           1           1
Nuclear ZEff                               R   N=          11
 -1.17624000E+03 -1.42400000E+01 -1.42400000E+01 -4.55000000E+00 -1.00000000E+00
 -1.00000000E+00 -4.55000000E+00 -1.00000000E+00 -1.00000000E+00 -1.00000000E+00
 -1.00000000E+00
Nuclear ZNuc                               R   N=          11
  7.80000000E+01  1.70000000E+01  1.70000000E+01  7.00000000E+00  1.00000000E+00
  1.00000000E+00  7.00000000E+00  1.00000000E+00  1.00000000E+00  1.00000000E+00
  1.00000000E+00
Nuclear QMom                               R   N=          11
  0.00000000E+00 -8.16500000E+00 -8.16500000E+00  2.04400000E+00  0.00000000E+00
  0.00000000E+00  2.04400000E+00  0.00000000E+00  0.00000000E+00  0.00000000E+00
  0.00000000E+00
Nuclear GFac                               R   N=          11
  6.09500000E-01  8.21874000E-01  8.21874000E-01  4.03761000E-01  2.79284600E+00
  2.79284600E+00  4.03761000E-01  2.79284600E+00  2.79284600E+00  2.79284600E+00
  2.79284600E+00
MicOpt                                     I   N=          11
          -1          -1          -1          -1          -1          -1
          -1          -1          -1          -1          -1
Number of contracted shells                I               38
Number of primitive shells                 I               96
Pure/Cartesian d shells                    I                0
Pure/Cartesian f shells                    I                0
Highest angular momentum                   I                2
Largest degree of contraction              I                6
Shell types                                I   N=          38
           0           0           0           1           1           1
          -2          -2           0          -1          -1          -1
          -2           0          -1          -1          -1          -2
           0          -1          -1          -2           0           0
           0           0           0          -1          -1          -2
           0           0           0           0           0           0
           0           0
Number of primitives per shell             I   N=          38
           3           3           1           3           2           1
           2           1           6           6           3           1
           1           6           6           3           1           1
           6           3           1           1           3           1
           3           1           6           3           1           1
           3           1           3           1           3           1
           3           1
Shell to atom map                          I   N=          38
           1           1           1           1           1           1
           1           1           2           2           2           2
           2           3           3           3           3           3
           4           4           4           4           5           5
           6           6           7           7           7           7
           8           8           9           9          10          10
          11          11
Primitive exponents                        R   N=          96
  1.61400000E+00  5.16700000E-01  2.65100000E-01  2.54700000E+00  1.61400000E+00
  5.16700000E-01  5.80000000E-02  2.91100000E+00  1.83600000E+00  5.98200000E-01
  6.04800000E-01  9.96000000E-02  2.90000000E-02  1.24300000E+00  4.27100000E-01
  1.37000000E-01  2.51801000E+04  3.78035000E+03  8.60474000E+02  2.42145000E+02
  7.73349000E+01  2.62470000E+01  4.91765000E+02  1.16984000E+02  3.74153000E+01
  1.37834000E+01  5.45215000E+00  2.22588000E+00  3.18649000E+00  1.14427000E+00
  4.20377000E-01  1.42657000E-01  7.50000000E-01  2.51801000E+04  3.78035000E+03
  8.60474000E+02  2.42145000E+02  7.73349000E+01  2.62470000E+01  4.91765000E+02
  1.16984000E+02  3.74153000E+01  1.37834000E+01  5.45215000E+00  2.22588000E+00
  3.18649000E+00  1.14427000E+00  4.20377000E-01  1.42657000E-01  7.50000000E-01
  4.17351146E+03  6.27457911E+02  1.42902093E+02  4.02343293E+01  1.28202129E+01
  4.39043701E+00  1.16263619E+01  2.71627981E+00  7.72218397E-01  2.12031498E-01
  8.00000000E-01  1.87311370E+01  2.82539436E+00  6.40121692E-01  1.61277759E-01
  1.87311370E+01  2.82539436E+00  6.40121692E-01  1.61277759E-01  4.17351146E+03
  6.27457911E+02  1.42902093E+02  4.02343293E+01  1.28202129E+01  4.39043701E+00
  1.16263619E+01  2.71627981E+00  7.72218397E-01  2.12031498E-01  8.00000000E-01
  1.87311370E+01  2.82539436E+00  6.40121692E-01  1.61277759E-01  1.87311370E+01
  2.82539436E+00  6.40121692E-01  1.61277759E-01  1.87311370E+01  2.82539436E+00
  6.40121692E-01  1.61277759E-01  1.87311370E+01  2.82539436E+00  6.40121692E-01
  1.61277759E-01
Contraction coefficients                   R   N=          96
 -3.17089326E-01 -9.98930098E-01  1.89106872E+00 -1.47391828E+00  1.91157236E+00
  3.92231974E-01  1.00000000E+00 -5.24743799E-01  9.67188399E-01  5.43863199E-01
 -1.06143826E-01  1.03831026E+00  1.00000000E+00  5.59814989E-01  5.51108989E-01
  1.00000000E+00  1.83295985E-03  1.40341988E-02  6.90973943E-02  2.37451980E-01
  4.83033960E-01  3.39855972E-01 -2.29739142E-03 -3.07137189E-02 -1.12528069E-01
  4.50163278E-02  5.89353363E-01  4.65206287E-01 -2.51828028E-01  6.15892514E-02
  1.06018433E+00  1.00000000E+00  1.00000000E+00  1.83295985E-03  1.40341988E-02
  6.90973943E-02  2.37451980E-01  4.83033960E-01  3.39855972E-01 -2.29739142E-03
 -3.07137189E-02 -1.12528069E-01  4.50163278E-02  5.89353363E-01  4.65206287E-01
 -2.51828028E-01  6.15892514E-02  1.06018433E+00  1.00000000E+00  1.00000000E+00
  1.83477216E-03  1.39946270E-02  6.85865518E-02  2.32240873E-01  4.69069948E-01
  3.60455199E-01 -1.14961182E-01 -1.69117479E-01  1.14585195E+00  1.00000000E+00
  1.00000000E+00  3.34946043E-02  2.34726953E-01  8.13757326E-01  1.00000000E+00
  3.34946043E-02  2.34726953E-01  8.13757326E-01  1.00000000E+00  1.83477216E-03
  1.39946270E-02  6.85865518E-02  2.32240873E-01  4.69069948E-01  3.60455199E-01
 -1.14961182E-01 -1.69117479E-01  1.14585195E+00  1.00000000E+00  1.00000000E+00
  3.34946043E-02  2.34726953E-01  8.13757326E-01  1.00000000E+00  3.34946043E-02
  2.34726953E-01  8.13757326E-01  1.00000000E+00  3.34946043E-02  2.34726953E-01
  8.13757326E-01  1.00000000E+00  3.34946043E-02  2.34726953E-01  8.13757326E-01
  1.00000000E+00
P(S=P) Contraction coefficients            R   N=          96
  0.00000000E+00  0.00000000E+00  0.00000000E+00  0.00000000E+00  0.00000000E+00
  0.00000000E+00  0.00000000E+00  0.00000000E+00  0.00000000E+00  0.00000000E+00
  0.00000000E+00  0.00000000E+00  0.00000000E+00  0.00000000E+00  0.00000000E+00
  0.00000000E+00  0.00000000E+00  0.00000000E+00  0.00000000E+00  0.00000000E+00
  0.00000000E+00  0.00000000E+00  3.98940088E-03  3.03177067E-02  1.29880029E-01
  3.27951072E-01  4.53527100E-01  2.52154056E-01 -1.42993147E-02  3.23572333E-01
  7.43507765E-01  1.00000000E+00  0.00000000E+00  0.00000000E+00  0.00000000E+00
  0.00000000E+00  0.00000000E+00  0.00000000E+00  0.00000000E+00  3.98940088E-03
  3.03177067E-02  1.29880029E-01  3.27951072E-01  4.53527100E-01  2.52154056E-01
 -1.42993147E-02  3.23572333E-01  7.43507765E-01  1.00000000E+00  0.00000000E+00
  0.00000000E+00  0.00000000E+00  0.00000000E+00  0.00000000E+00  0.00000000E+00
  0.00000000E+00  6.75797439E-02  3.23907296E-01  7.40895140E-01  1.00000000E+00
  0.00000000E+00  0.00000000E+00  0.00000000E+00  0.00000000E+00  0.00000000E+00
  0.00000000E+00  0.00000000E+00  0.00000000E+00  0.00000000E+00  0.00000000E+00
  0.00000000E+00  0.00000000E+00  0.00000000E+00  0.00000000E+00  0.00000000E+00
  6.75797439E-02  3.23907296E-01  7.40895140E-01  1.00000000E+00  0.00000000E+00
  0.00000000E+00  0.00000000E+00  0.00000000E+00  0.00000000E+00  0.00000000E+00
  0.00000000E+00  0.00000000E+00  0.00000000E+00  0.00000000E+00  0.00000000E+00
  0.00000000E+00  0.00000000E+00  0.00000000E+00  0.00000000E+00  0.00000000E+00
  0.00000000E+00
Coordinates of each shell                  R   N=         114
  1.84889275E-32 -2.46519033E-32  3.57585174E-01  1.84889275E-32 -2.46519033E-32
  3.57585174E-01  1.84889275E-32 -2.46519033E-32  3.57585174E-01  1.84889275E-32
 -2.46519033E-32  3.57585174E-01  1.84889275E-32 -2.46519033E-32  3.57585174E-01
  1.84889275E-32 -2.46519033E-32  3.57585174E-01  1.84889275E-32 -2.46519033E-32
  3.57585174E-01  1.84889275E-32 -2.46519033E-32  3.57585174E-01 -2.46519033E-32
  3.28143132E+00 -2.63462170E+00 -2.46519033E-32  3.28143132E+00 -2.63462170E+00
 -2.46519033E-32  3.28143132E+00 -2.63462170E+00 -2.46519033E-32  3.28143132E+00
 -2.63462170E+00 -2.46519033E-32  3.28143132E+00 -2.63462170E+00 -4.01846165E-16
 -3.28143132E+00 -2.63462170E+00 -4.01846165E-16 -3.28143132E+00 -2.63462170E+00
 -4.01846165E-16 -3.28143132E+00 -2.63462170E+00 -4.01846165E-16 -3.28143132E+00
 -2.63462170E+00 -4.01846165E-16 -3.28143132E+00 -2.63462170E+00  4.93038066E-32
  3.02491908E+00  2.97572038E+00  4.93038066E-32  3.02491908E+00  2.97572038E+00
  4.93038066E-32  3.02491908E+00  2.97572038E+00  4.93038066E-32  3.02491908E+00
  2.97572038E+00 -1.56777284E+00  3.10132078E+00  4.09489988E+00 -1.56777284E+00
  3.10132078E+00  4.09489988E+00  1.56777284E+00  3.10132078E+00  4.09489988E+00
  1.56777284E+00  3.10132078E+00  4.09489988E+00 -3.70433512E-16 -3.02491908E+00
  2.97572038E+00 -3.70433512E-16 -3.02491908E+00  2.97572038E+00 -3.70433512E-16
 -3.02491908E+00  2.97572038E+00 -3.70433512E-16 -3.02491908E+00  2.97572038E+00
  1.56777284E+00 -3.10132078E+00  4.09489988E+00  1.56777284E+00 -3.10132078E+00
  4.09489988E+00 -1.56777284E+00 -3.10132078E+00  4.09489988E+00 -1.56777284E+00
 -3.10132078E+00  4.09489988E+00  2.71170936E-31 -4.58632262E+00  1.82290467E+00
  2.71170936E-31 -4.58632262E+00  1.82290467E+00  5.61643983E-16  4.58632262E+00
  1.82290467E+00  5.61643983E-16  4.58632262E+00  1.82290467E+00
Constraint Structure                       R   N=          33
 -3.08148791E-33  3.08148791E-33  3.53223457E-01  9.86076132E-32  3.29041760E+00
 -2.61747138E+00 -4.02946630E-16 -3.29041760E+00 -2.61747138E+00 -7.39557099E-32
  3.04553555E+00  2.96398782E+00 -1.56710440E+00  3.15821442E+00  4.09237164E+00
  1.56710440E+00  3.15821442E+00  4.09237164E+00 -3.72958218E-16 -3.04553555E+00
  2.96398782E+00  1.56710440E+00 -3.15821442E+00  4.09237164E+00 -1.56710440E+00
 -3.15821442E+00  4.09237164E+00 -8.62816615E-32 -4.60020568E+00  1.78864053E+00
  5.63344110E-16  4.60020568E+00  1.78864053E+00
Num ILSW                                   I              100
ILSW                                       I   N=         100
           0           0           0           0           2           0
           0           0           0           0         402          -1
           0           0           0           0           2           0
           0           0           1           0           1           0
           1           0           0           0           0           0
           0           0      100000           0          -1           0
           0           0           0           0           0           0
           0           0           0           1           0           0
           0           0           1           0           0           0
           0           0           4          41           0           0
           0           0           5           0           0           0
           0           0           0           0           0           0
           0           0           0           0           0           0
           0           0           0           0           0           0
           0           0           0           0           0           0
           0           0           0           0           0           0
           0           0           0           0
Num RLSW                                   I               41
RLSW                                       R   N=          41
  8.00000000E-01  7.20000000E-01  1.00000000E+00  8.10000000E-01  2.00000000E-01
  0.00000000E+00  0.00000000E+00  1.00000000E+00  0.00000000E+00  0.00000000E+00
  0.00000000E+00  0.00000000E+00  1.00000000E+00  0.00000000E+00  0.00000000E+00
  0.00000000E+00  0.00000000E+00  1.00000000E+00  0.00000000E+00  0.00000000E+00
  0.00000000E+00  0.00000000E+00  1.00000000E+00  0.00000000E+00  0.00000000E+00
  0.00000000E+00  0.00000000E+00  1.00000000E+00  0.00000000E+00  0.00000000E+00
  0.00000000E+00  0.00000000E+00  1.00000000E+00  0.00000000E+00  0.00000000E+00
  0.00000000E+00  0.00000000E+00  0.00000000E+00  1.00000000E+00  1.00000000E+00
  0.00000000E+00
ECP-MxAtEC                                 I            20000
ECP-MaxLECP                                I               10
ECP-MaxAtL                                 I           180000
ECP-MxTECP                                 I           900000
ECP-LenNCZ                                 I               25
ECP-KFirst                                 I   N=         110
           1           0           0           0           0           0
           0           0           0           0           0           6
           0           0           0           0           0           0
           0           0           0           0          12           0
           0           0           0           0           0           0
           0           0           0          16           0           0
           0           0           0           0           0           0
           0           0          21           0           0           0
           0           0           0           0           0           0
           0           0           0           0           0           0
           0           0           0           0           0           0
           0           0           0           0           0           0
           0           0           0           0           0           0
           0           0           0           0           0           0
           0           0           0           0           0           0
           0           0           0           0           0           0
           0           0           0           0           0           0
           0           0           0           0           0           0
           0           0
ECP-KLast                                  I   N=         110
           5           0           0           0           0           0
           0           0           0           0           0          11
           0           0           0           0           0           0
           0           0           0           0          15           0
           0           0           0           0           0           0
           0           0           0          20           0           0
           0           0           0           0           0           0
           0           0          25           0           0           0
           0           0           0           0           0           0
           0           0           0           0           0           0
           0           0           0           0           0           0
           0           0           0           0           0           0
           0           0           0           0           0           0
           0           0           0           0           0           0
           0           0           0           0           0           0
           0           0           0           0           0           0
           0           0           0           0           0           0
           0           0           0           0           0           0
           0           0
ECP-LMax                                   I   N=          11
           4           0           0           0           0           0
           0           0           0           0           0
ECP-LPSkip                                 I   N=          11
           0           1           1           1           1           1
           1           1           1           1           1
ECP-RNFroz                                 R   N=          11
  6.00000000E+01  0.00000000E+00  0.00000000E+00  0.00000000E+00  0.00000000E+00
  0.00000000E+00  0.00000000E+00  0.00000000E+00  0.00000000E+00  0.00000000E+00
  0.00000000E+00
ECP-NLP                                    I   N=          25
           1           2           2           2           2           0
           1           2           2           2           2           0
           1           2           2           0           1           2
           2           2           0           1           2           2
           2
ECP-CLP1                                   R   N=          25
 -1.61926800E-01 -1.32028739E+03 -2.98317814E+02 -8.75837065E+01 -8.14932740E+00
  2.73342180E+00  5.97024329E+01  8.91458955E+02  3.68446766E+02  2.38026309E+02
 -1.07055645E+02  1.88785680E+00  7.60138629E+01  3.43551112E+02  1.19491179E+02
  2.93436780E+00  5.93306571E+01  4.52444519E+02  2.10476948E+02  5.86254112E+01
  3.95342530E+00  5.38555182E+01  2.47430513E+02  1.27818798E+02  1.53772046E+01
ECP-CLP2                                   R   N=          25
  0.00000000E+00  0.00000000E+00  0.00000000E+00  0.00000000E+00  0.00000000E+00
  0.00000000E+00  0.00000000E+00  0.00000000E+00  0.00000000E+00  0.00000000E+00
  0.00000000E+00  0.00000000E+00  0.00000000E+00  0.00000000E+00  0.00000000E+00
  0.00000000E+00  0.00000000E+00  0.00000000E+00  0.00000000E+00  0.00000000E+00
  0.00000000E+00  0.00000000E+00  0.00000000E+00  0.00000000E+00  0.00000000E+00
ECP-ZLP                                    R   N=          25
  7.28939406E+02  3.20656780E+02  5.28680174E+01  1.20280128E+01  3.52389130E+00
  4.09443736E+02  2.74541923E+02  1.27565857E+02  3.29036631E+01  5.05938800E+00
  4.15065560E+00  4.66172889E+02  1.20788826E+02  3.64118791E+01  5.69854080E+00
  2.49565076E+02  1.26667858E+02  6.31430586E+01  1.79059470E+01  4.22393730E+00
  1.21815880E+02  6.08757030E+01  3.14767147E+01  9.88117510E+00  2.73198740E+00
MxBond                                     I                4
NBond                                      I   N=          11
           4           1           1           4           1           1
           4           1           1           1           1
IBond                                      I   N=          44
           2           3           4           7           1           0
           0           0           1           0           0           0
           1           5           6          11           4           0
           0           0           4           0           0           0
           1           8           9          10           7           0
           0           0           7           0           0           0
           7           0           0           0           4           0
           0           0
RBond                                      R   N=          44
  1.00000000E+00  1.00000000E+00  1.00000000E+00  1.00000000E+00  1.00000000E+00
  0.00000000E+00  0.00000000E+00  0.00000000E+00  1.00000000E+00  0.00000000E+00
  0.00000000E+00  0.00000000E+00  1.00000000E+00  1.00000000E+00  1.00000000E+00
  1.00000000E+00  1.00000000E+00  0.00000000E+00  0.00000000E+00  0.00000000E+00
  1.00000000E+00  0.00000000E+00  0.00000000E+00  0.00000000E+00  1.00000000E+00
  1.00000000E+00  1.00000000E+00  1.00000000E+00  1.00000000E+00  0.00000000E+00
  0.00000000E+00  0.00000000E+00  1.00000000E+00  0.00000000E+00  0.00000000E+00
  0.00000000E+00  1.00000000E+00  0.00000000E+00  0.00000000E+00  0.00000000E+00
  1.00000000E+00  0.00000000E+00  0.00000000E+00  0.00000000E+00
Virial Ratio                               R      2.078645508657737E+00
SCF Energy                                 R     -1.152779246592867E+03
Total Energy                               R     -1.152779246592867E+03
RMS Force                                  R      3.021134911793856E-05
RMS Density                                R      8.081403926163060E-09
External E-field                           R   N=          35
  0.00000000E+00  0.00000000E+00  0.00000000E+00  0.00000000E+00  0.00000000E+00
  0.00000000E+00  0.00000000E+00  0.00000000E+00  0.00000000E+00  0.00000000E+00
  0.00000000E+00  0.00000000E+00  0.00000000E+00  0.00000000E+00  0.00000000E+00
  0.00000000E+00  0.00000000E+00  0.00000000E+00  0.00000000E+00  0.00000000E+00
  0.00000000E+00  0.00000000E+00  0.00000000E+00  0.00000000E+00  0.00000000E+00
  0.00000000E+00  0.00000000E+00  0.00000000E+00  0.00000000E+00  0.00000000E+00
  0.00000000E+00  0.00000000E+00  0.00000000E+00  0.00000000E+00  0.00000000E+00
IOpCl                                      I                0
IROHF                                      I                0
Alpha Orbital Energies                     R   N=          98
 -1.01460836E+02 -1.01460830E+02 -1.44178504E+01 -1.44178327E+01 -9.39144482E+00
 -9.39143146E+00 -7.15265672E+00 -7.15263185E+00 -7.14607663E+00 -7.14605730E+00
 -7.14579924E+00 -7.14579492E+00 -3.93670382E+00 -2.16723270E+00 -2.16207860E+00
 -2.12083317E+00 -9.49981208E-01 -9.46334968E-01 -7.46445238E-01 -7.40249976E-01
 -5.60953461E-01 -5.60020507E-01 -5.57659212E-01 -5.48924556E-01 -4.52853259E-01
 -4.43934846E-01 -3.29127581E-01 -3.23124582E-01 -3.12977093E-01 -3.02892077E-01
 -3.00044520E-01 -2.54337166E-01 -2.44293852E-01 -2.41582112E-01 -2.35624803E-01
 -2.26803378E-01 -6.20750383E-02 -2.25310596E-02  3.46645008E-03  1.41508634E-02
  6.04567777E-02  7.93495706E-02  1.02515398E-01  1.08271275E-01  1.09610698E-01
  1.45596781E-01  1.57538197E-01  1.59446087E-01  2.44560427E-01  2.88856763E-01
  3.84473555E-01  4.01504246E-01  4.05627648E-01  4.48134793E-01  4.52308838E-01
  5.01497615E-01  5.40258844E-01  5.49913589E-01  5.69392490E-01  5.87019751E-01
  6.15616853E-01  6.43668528E-01  7.28204612E-01  7.35862373E-01  7.50536892E-01
  7.57765063E-01  7.84770526E-01  7.92554463E-01  8.36896737E-01  8.44822665E-01
  8.48925434E-01  8.51948508E-01  8.79897605E-01  9.25011485E-01  9.32155946E-01
  9.35987926E-01  9.37171214E-01  9.58285157E-01  9.97832854E-01  1.01244757E+00
  1.02074784E+00  1.05126432E+00  1.09535486E+00  1.15661789E+00  1.25903132E+00
  1.46766742E+00  1.54113566E+00  1.58119530E+00  1.61390114E+00  1.63791675E+00
  1.74755634E+00  1.87428890E+00  1.87615837E+00  2.31722087E+00  2.32186243E+00
  2.32764837E+00  2.33948358E+00  4.08124608E+00
Alpha MO coefficients                      R   N=        9604
  1.10305893E-04  1.81000643E-04 -2.53733930E-03  0.00000000E+00  0.00000000E+00
  1.21756432E-04  0.00000000E+00  0.00000000E+00  1.45530673E-03  0.00000000E+00
  0.00000000E+00  3.39272453E-04  3.33486832E-05  0.00000000E+00  0.00000000E+00
 -4.13784384E-05  0.00000000E+00 -2.79539796E-04  0.00000000E+00  0.00000000E+00
  6.54506128E-04  0.00000000E+00  7.04613487E-01  8.96432847E-03  0.00000000E+00
 -2.38880934E-05  3.69097206E-05 -3.68040119E-03  0.00000000E+00  8.40289666E-05
 -1.22362428E-04  3.59077952E-03  0.00000000E+00 -7.70932207E-04  6.84237541E-04
  1.05563821E-05  0.00000000E+00 -7.30132638E-05 -5.77199159E-05  0.00000000E+00
  7.04613487E-01  8.96432847E-03  0.00000000E+00  2.38880934E-05  3.69097206E-05
 -3.68040119E-03  0.00000000E+00 -8.40289666E-05 -1.22362428E-04  3.59077952E-03
  0.00000000E+00  7.70932207E-04  6.84237541E-04  1.05563821E-05  0.00000000E+00
  7.30132638E-05 -5.77199159E-05  0.00000000E+00 -4.87045187E-06 -2.66465336E-05
  0.00000000E+00 -3.82138874E-05 -2.36503623E-05  3.21721016E-04  0.00000000E+00
  1.62036116E-04 -6.31341744E-05 -6.65979125E-06  0.00000000E+00 -7.20413360E-07
  4.37447142E-06  0.00000000E+00 -1.75380718E-05  1.93207040E-05 -1.75380718E-05
  1.93207040E-05 -4.87045187E-06 -2.66465336E-05  0.00000000E+00  3.82138874E-05
 -2.36503623E-05  3.21721016E-04  0.00000000E+00 -1.62036116E-04 -6.31341744E-05
 -6.65979125E-06  0.00000000E+00  7.20413360E-07  4.37447142E-06  0.00000000E+00
 -1.75380718E-05  1.93207040E-05 -1.75380718E-05  1.93207040E-05  1.20506709E-05
 -2.90466844E-04  1.20506709E-05 -2.90466844E-04  0.00000000E+00  0.00000000E+00
  0.00000000E+00  0.00000000E+00 -1.16844860E-04  0.00000000E+00  0.00000000E+00
 -1.39379193E-03  0.00000000E+00  0.00000000E+00 -3.69315877E-04  0.00000000E+00
  0.00000000E+00  0.00000000E+00  3.10722439E-05  0.00000000E+00  0.00000000E+00
  0.00000000E+00  0.00000000E+00  6.04477119E-04  0.00000000E+00  0.00000000E+00
  7.04617208E-01  8.97900397E-03  0.00000000E+00 -3.34191800E-05  3.70592840E-05
 -3.52923026E-03  0.00000000E+00  1.20208863E-04 -1.22624377E-04  3.02380524E-03
  0.00000000E+00 -5.86651057E-04  6.93299380E-04  3.44094630E-05  0.00000000E+00
 -7.55338585E-05 -3.52473919E-05  0.00000000E+00 -7.04617208E-01 -8.97900397E-03
  0.00000000E+00 -3.34191800E-05 -3.70592840E-05  3.52923026E-03  0.00000000E+00
  1.20208863E-04  1.22624377E-04 -3.02380524E-03  0.00000000E+00 -5.86651057E-04
 -6.93299380E-04 -3.44094630E-05  0.00000000E+00 -7.55338585E-05  3.52473919E-05
  0.00000000E+00 -3.24011273E-06 -2.05373221E-05  0.00000000E+00 -1.06832696E-05
  7.35104864E-06  8.84285391E-05  0.00000000E+00  1.09443904E-04 -1.34915449E-04
 -1.44518942E-05  0.00000000E+00 -6.09941616E-06  8.80109816E-06  0.00000000E+00
 -3.85910965E-05  1.91689324E-04 -3.85910965E-05  1.91689324E-04  3.24011273E-06
  2.05373221E-05  0.00000000E+00 -1.06832696E-05 -7.35104864E-06 -8.84285391E-05
  0.00000000E+00  1.09443904E-04  1.34915449E-04  1.44518942E-05  0.00000000E+00
 -6.09941616E-06 -8.80109816E-06  0.00000000E+00  3.85910965E-05 -1.91689324E-04
  3.85910965E-05 -1.91689324E-04  1.23496826E-05  1.91194244E-04 -1.23496826E-05
 -1.91194244E-04  0.00000000E+00  0.00000000E+00  0.00000000E+00  0.00000000E+00
  6.29689325E-04  0.00000000E+00  0.00000000E+00  5.73666184E-03  0.00000000E+00
  0.00000000E+00 -1.93953616E-03  0.00000000E+00  0.00000000E+00  0.00000000E+00
  1.69025251E-04  0.00000000E+00  0.00000000E+00  0.00000000E+00  0.00000000E+00