b3lyp/lanl2dz+6-31G* opted                                              
SP        RB3LYP                                                      LANL2DZ             
Number of atoms                            I                1
Info1-9                                    I   N=           9
           9           8           0           0           0         110
           1          18        -502
Charge                                     I                2
Multiplicity                               I                1
Number of electrons                        I               16
Number of alpha electrons                  I                8
Number of beta electrons                   I                8
Number of basis functions                  I               22
Number of independent functions            I               22
Number of point charges in /Mol/           I                0
Number of translation vectors              I                0
Atomic numbers                             I   N=           1
          78
Nuclear charges                            R   N=           1
  1.80000000E+01
Current cartesian coordinates              R   N=           3
  0.00000000E+00  0.00000000E+00  3.57585317E-01
Force Field                                I                0
Int Atom Types                             I   N=           1
           0
MM charges                                 R   N=           1
  0.00000000E+00
Integer atomic weights                     I   N=           1
         195
Real atomic weights                        R   N=           1
  1.94964800E+02
Atom fragment info                         I   N=           1
           0
Atom residue num                           I   N=           1
           0
Nuclear spins                              I   N=           1
           1
Nuclear ZEff                               R   N=           1
 -1.17624000E+03
Nuclear ZNuc                               R   N=           1
  7.80000000E+01
Nuclear QMom                               R   N=           1
  0.00000000E+00
Nuclear GFac                               R   N=           1
  6.09500000E-01
MicOpt                                     I   N=           1
          -1
Number of contracted shells                I                8
Number of primitive shells                 I               16
Pure/Cartesian d shells                    I                0
Pure/Cartesian f shells                    I                0
Highest angular momentum                   I                2
Largest degree of contraction              I                3
Shell types                                I   N=           8
           0           0           0           1           1           1
          -2          -2
Number of primitives per shell             I   N=           8
           3           3           1           3           2           1
           2           1
Shell to atom map                          I   N=           8
           1           1           1           1           1           1
           1           1
Primitive exponents                        R   N=          16
  1.61400000E+00  5.16700000E-01  2.65100000E-01  2.54700000E+00  1.61400000E+00
  5.16700000E-01  5.80000000E-02  2.91100000E+00  1.83600000E+00  5.98200000E-01
  6.04800000E-01  9.96000000E-02  2.90000000E-02  1.24300000E+00  4.27100000E-01
  1.37000000E-01
Contraction coefficients                   R   N=          16
 -3.17089326E-01 -9.98930098E-01  1.89106872E+00 -1.47391828E+00  1.91157236E+00
  3.92231974E-01  1.00000000E+00 -5.24743799E-01  9.67188399E-01  5.43863199E-01
 -1.06143826E-01  1.03831026E+00  1.00000000E+00  5.59814989E-01  5.51108989E-01
  1.00000000E+00
Coordinates of each shell                  R   N=          24
  0.00000000E+00  0.00000000E+00  3.57585317E-01  0.00000000E+00  0.00000000E+00
  3.57585317E-01  0.00000000E+00  0.00000000E+00  3.57585317E-01  0.00000000E+00
  0.00000000E+00  3.57585317E-01  0.00000000E+00  0.00000000E+00  3.57585317E-01
  0.00000000E+00  0.00000000E+00  3.57585317E-01  0.00000000E+00  0.00000000E+00
  3.57585317E-01  0.00000000E+00  0.00000000E+00  3.57585317E-01
Constraint Structure                       R   N=           3
  0.00000000E+00  0.00000000E+00  3.57585317E-01
Num ILSW                                   I              100
ILSW                                       I   N=         100
           0           0           0           0           2           0
           0           0           0           0         402          -1
           0           0           0           0           0           0
           0           0           1           0           0           0
           1           1           0           0           0           0
           0           0      100000           0          -1           0
           0           0           0           0           0           0
           0           0           0           1           0           0
           0           0           1           0           0           0
           0           0           4          41           0           0
           0           0           5           0           0           0
           0           0           0           0           0           0
           0           0           0           0           0           0
           0           0           0           0           0           0
           0           0           0           0           0           0
           0           0           0           0           0           0
           0           0           0           0
Num RLSW                                   I               41
RLSW                                       R   N=          41
  8.00000000E-01  7.20000000E-01  1.00000000E+00  8.10000000E-01  2.00000000E-01
  0.00000000E+00  0.00000000E+00  1.00000000E+00  0.00000000E+00  0.00000000E+00
  0.00000000E+00  0.00000000E+00  1.00000000E+00  0.00000000E+00  0.00000000E+00
  0.00000000E+00  0.00000000E+00  1.00000000E+00  0.00000000E+00  0.00000000E+00
  0.00000000E+00  0.00000000E+00  1.00000000E+00  0.00000000E+00  0.00000000E+00
  0.00000000E+00  0.00000000E+00  1.00000000E+00  0.00000000E+00  0.00000000E+00
  0.00000000E+00  0.00000000E+00  1.00000000E+00  0.00000000E+00  0.00000000E+00
  0.00000000E+00  0.00000000E+00  0.00000000E+00  1.00000000E+00  1.00000000E+00
  0.00000000E+00
ECP-MxAtEC                                 I            20000
ECP-MaxLECP                                I               10
ECP-MaxAtL                                 I           180000
ECP-MxTECP                                 I           900000
ECP-LenNCZ                                 I               25
ECP-KFirst                                 I   N=          10
           1           6          12          16          21           0
           0           0           0           0
ECP-KLast                                  I   N=          10
           5          11          15          20          25           0
           0           0           0           0
ECP-LMax                                   I   N=           1
           4
ECP-LPSkip                                 I   N=           1
           0
ECP-RNFroz                                 R   N=           1
  6.00000000E+01
ECP-NLP                                    I   N=          25
           1           2           2           2           2           0
           1           2           2           2           2           0
           1           2           2           0           1           2
           2           2           0           1           2           2
           2
ECP-CLP1                                   R   N=          25
 -1.61926800E-01 -1.32028739E+03 -2.98317814E+02 -8.75837065E+01 -8.14932740E+00
  2.73342180E+00  5.97024329E+01  8.91458955E+02  3.68446766E+02  2.38026309E+02
 -1.07055645E+02  1.88785680E+00  7.60138629E+01  3.43551112E+02  1.19491179E+02
  2.93436780E+00  5.93306571E+01  4.52444519E+02  2.10476948E+02  5.86254112E+01
  3.95342530E+00  5.38555182E+01  2.47430513E+02  1.27818798E+02  1.53772046E+01
ECP-CLP2                                   R   N=          25
  0.00000000E+00  0.00000000E+00  0.00000000E+00  0.00000000E+00  0.00000000E+00
  0.00000000E+00  0.00000000E+00  0.00000000E+00  0.00000000E+00  0.00000000E+00
  0.00000000E+00  0.00000000E+00  0.00000000E+00  0.00000000E+00  0.00000000E+00
  0.00000000E+00  0.00000000E+00  0.00000000E+00  0.00000000E+00  0.00000000E+00
  0.00000000E+00  0.00000000E+00  0.00000000E+00  0.00000000E+00  0.00000000E+00
ECP-ZLP                                    R   N=          25
  7.28939406E+02  3.20656780E+02  5.28680174E+01  1.20280128E+01  3.52389130E+00
  4.09443736E+02  2.74541923E+02  1.27565857E+02  3.29036631E+01  5.05938800E+00
  4.15065560E+00  4.66172889E+02  1.20788826E+02  3.64118791E+01  5.69854080E+00
  2.49565076E+02  1.26667858E+02  6.31430586E+01  1.79059470E+01  4.22393730E+00
  1.21815880E+02  6.08757030E+01  3.14767147E+01  9.88117510E+00  2.73198740E+00
MxBond                                     I                1
NBond                                      I   N=           1
           0
IBond                                      I   N=           1
           0
RBond                                      R   N=           1
  0.00000000E+00
Virial Ratio                               R      4.184134769685532E+00
SCF Energy                                 R     -1.179599902943052E+02
Total Energy                               R     -1.179599902943052E+02
RMS Density                                R      2.045815479237192E-09
External E-field                           R   N=          35
  0.00000000E+00  0.00000000E+00  0.00000000E+00  0.00000000E+00  0.00000000E+00
  0.00000000E+00  0.00000000E+00  0.00000000E+00  0.00000000E+00  0.00000000E+00
  0.00000000E+00  0.00000000E+00  0.00000000E+00  0.00000000E+00  0.00000000E+00
  0.00000000E+00  0.00000000E+00  0.00000000E+00  0.00000000E+00  0.00000000E+00
  0.00000000E+00  0.00000000E+00  0.00000000E+00  0.00000000E+00  0.00000000E+00
  0.00000000E+00  0.00000000E+00  0.00000000E+00  0.00000000E+00  0.00000000E+00
  0.00000000E+00  0.00000000E+00  0.00000000E+00  0.00000000E+00  0.00000000E+00
IOpCl                                      I                0
IROHF                                      I                0
Alpha Orbital Energies                     R   N=          22
 -4.69282638E+00 -2.94670955E+00 -2.87749993E+00 -2.87749993E+00 -1.02225818E+00
 -1.02225818E+00 -9.71384045E-01 -9.71384009E-01 -9.34707026E-01 -7.48883392E-01
 -4.99145573E-01 -4.80745996E-01 -4.80745995E-01 -2.03296097E-01 -1.98692895E-01
 -1.98692891E-01 -1.70686321E-01 -1.70686321E-01 -1.67581760E-01 -1.52945540E-01
 -1.52945337E-01  1.47637313E+00
Alpha MO coefficients                      R   N=         484
 -1.63976540E-02  1.00629354E+00 -3.03976404E-03 -7.49749367E-16  2.16657922E-16
 -3.76413183E-15  1.84687926E-14 -5.38621278E-15  7.73403844E-14 -2.71648894E-14
  6.75008511E-15 -1.16324885E-13 -7.00235975E-03  4.11297242E-10  6.42437784E-09
 -1.21284429E-02 -6.73253900E-09  1.63448280E-03 -9.77822239E-11 -1.49563456E-09
  2.83100727E-03  1.56737499E-09  2.88933985E-15  1.81224851E-15 -6.89126745E-15
 -2.77555502E-07  9.99947544E-01  2.64851703E-07  1.30985138E-10 -4.64119058E-04
 -1.27389486E-10 -5.12614866E-10  1.84955071E-03  4.92762864E-10  3.14000231E-16
 -3.96329078E-16  2.96714577E-15  1.65101223E-16  9.74171675E-17 -1.35272102E-16
 -1.83057609E-16  9.79765896E-16 -4.00190395E-17  2.55506707E-16 -1.79651163E-14
 -1.45587306E-14  4.80461981E-14  6.74683716E-01 -7.99268456E-09  7.37222895E-01
  1.79574021E-03 -2.22579855E-11  1.96219467E-03  5.40424122E-04 -5.20840765E-12
  5.90518233E-04  3.39435908E-15  3.60325635E-15 -6.48906310E-16  7.27968292E-16
  1.50455415E-15  4.22888939E-16 -7.51609894E-17 -1.48243906E-16  2.28228371E-16
 -9.14252617E-16  9.90019746E-15  7.95090160E-15 -2.67191797E-14  7.37222895E-01
  3.83328530E-07 -6.74683716E-01  1.96219475E-03  1.03029032E-09 -1.79574028E-03
  5.90518204E-04  3.05634095E-10 -5.40424096E-04 -4.47202436E-15  3.31001290E-15
 -4.46883025E-16  1.70862697E-15 -1.49734990E-15 -1.30730198E-15  8.43341044E-17
  1.01086578E-15  6.93273724E-16  1.03428666E-15 -7.62906298E-12  1.12682407E-11
 -2.45500284E-11  6.59455371E-16  5.80804795E-15 -5.12632359E-16 -2.85715317E-15
 -1.20066555E-13  1.44065927E-15  1.64966893E-15  1.99932335E-13  9.87883736E-16
  3.22365063E-07 -2.48437939E-08  7.02316431E-01 -1.70610689E-07  6.42248961E-01
  3.57230095E-08 -2.75203699E-09  7.77744362E-02 -1.88755138E-08  7.11225718E-02
  3.60911849E-10 -5.32706687E-10  1.16096785E-09  5.25212628E-16 -8.55686368E-15
 -8.36961097E-16 -2.70182831E-15  1.19493925E-13 -2.90597822E-16  1.01314988E-15
 -1.84490669E-13  1.89284777E-15 -2.94756691E-07  3.64452871E-07 -6.42248961E-01
 -5.60225051E-07  7.02316431E-01 -3.32930123E-08  4.03721369E-08 -7.11225721E-02
 -6.31696625E-08  7.77744365E-02  1.87241643E-10 -2.00052155E-10  2.52815244E-10
 -4.65792795E-14  5.18857864E-17  4.04898033E-14  5.37967109E-13 -6.46904096E-16
 -5.18631541E-13 -8.27534468E-13  4.78696265E-16  8.12822321E-13  8.17748965E-01
  3.41304442E-09 -2.50241021E-07 -4.72127587E-01 -2.62244315E-07  1.03952530E-01
  4.33869311E-10 -3.18026610E-08 -6.00170213E-02 -3.33281459E-08  2.13004313E-09
 -2.26578036E-09  2.88457694E-09 -7.27915300E-15  6.92649712E-16 -3.16512919E-14
  1.34316228E-14 -1.50611480E-15  3.37773143E-13 -2.26126139E-15 -2.28734967E-15
 -5.11793633E-13 -1.09534347E-08  9.44255167E-01  2.62224072E-07 -1.21458130E-08
 -2.50221720E-07 -1.44758018E-09  1.20034049E-01  3.33249658E-08 -1.63955053E-09
 -3.17995921E-08 -4.12029065E-02  4.49448960E-02 -5.54314685E-02 -1.74843335E-13
  4.45075143E-14 -7.43352880E-13  1.91742010E-12 -4.87740949E-13  8.16629112E-12
 -2.94415971E-12  7.37561552E-13 -1.25410261E-11  4.70576142E-01  1.63870898E-08
 -4.32992527E-07  8.15061783E-01  4.53761697E-07  5.95662281E-02  1.98162307E-09
 -5.36512701E-08  1.03171733E-01  5.62246650E-08  3.80022550E-01 -3.92174784E-01
  7.66620117E-01  3.28718004E-12 -8.20688647E-13  1.36795762E-11 -3.70721988E-11
  9.00403976E-12 -1.54250817E-10  5.78737435E-11 -1.36785110E-11  2.40782246E-10
  4.39804964E-02 -2.94141956E-09 -3.83065918E-08  7.61764548E-02  4.01436815E-08
 -4.37525589E-03  7.87189658E-11  1.69531537E-09 -7.57816551E-03 -1.77628550E-09
  1.12435665E-13 -6.40693070E-14  8.07198337E-14  4.60443590E-08 -2.24093408E-01
 -4.39416574E-08 -2.10995462E-07  1.01836007E+00  2.01292552E-07  5.20100549E-10
  9.59764686E-03 -3.21538427E-10  4.76261251E-15  1.25908958E-15 -4.89673884E-14
  8.18419171E-15 -8.25639263E-15 -1.94522817E-15  1.26945023E-15  7.16802390E-14
 -3.98725330E-15  6.42900005E-15 -7.08426783E-12  3.89648592E-12 -4.70400183E-12
 -1.51389840E-01  1.45077466E-09 -1.65811733E-01  6.73159826E-01 -6.61165568E-09
  7.37287238E-01  2.63154710E-02  2.22636500E-10  2.88223690E-02 -3.85522696E-13
  9.30341323E-14 -2.01449602E-16 -6.14591210E-13 -6.87111590E-16  3.03626453E-13
 -1.75380425E-13 -1.32328078E-16  4.54466580E-13  1.49676262E-15  3.90687293E-12
 -2.14856258E-12  2.59318480E-12 -1.65811733E-01 -6.37977310E-08  1.51389840E-01
  7.37287238E-01  2.81302168E-07 -6.73159826E-01  2.88223691E-02  1.44742588E-08
 -2.63154711E-02  5.08400255E-13 -1.17039876E-13  1.03172372E-15  1.38272869E-13
  1.87313582E-15 -6.70541575E-13  1.92802529E-13 -1.53542866E-15  9.02082561E-14
 -3.49474519E-16  1.20311231E-11 -3.97775770E-12  6.13521364E-13  4.52410025E-09
  8.32273033E-02  9.83572231E-08 -3.51965631E-08 -8.86396952E-01 -1.01348540E-06
  4.11739835E-08  1.32193561E+00  1.48221916E-06  8.77998159E-13 -2.66071145E-15
 -2.89212370E-11  1.52138316E-12  7.89788434E-15 -1.37926524E-12  6.66890716E-15
  5.71725769E-11 -2.38987054E-12 -1.37746709E-14 -1.96112299E-10  6.36067988E-11
 -7.59393323E-12  5.68143542E-02 -7.36899417E-08  6.85837404E-02 -5.79790624E-01
  7.83832171E-07 -6.99897239E-01  8.42966679E-01 -1.16817082E-06  1.01759157E+00
 -4.37302953E-11  2.49516389E-11  3.57251249E-15 -6.30669211E-11 -5.87270523E-15
  7.93696026E-11 -4.79068183E-11 -7.73822414E-15  1.13126250E-10  1.13301874E-14
  9.62718625E-11 -3.13343988E-11  3.87850780E-12  6.85837404E-02  5.98462965E-08
 -5.68143542E-02 -6.99897239E-01 -6.21774211E-07  5.79790624E-01  1.01759157E+00
  9.13797324E-07 -8.42966679E-01  7.89329685E-11 -2.06420109E-11  8.91463062E-15
 -1.05012823E-11 -1.47400884E-14 -1.49260085E-10  3.96372308E-11 -1.81380265E-14
  2.41620389E-11  2.93648020E-14  4.25107522E-10 -5.01944219E-10  5.13007445E-10
 -5.20161941E-16 -3.20135535E-12  4.70357676E-16  6.13904759E-15  3.41681635E-11
 -3.18014434E-15 -8.15437360E-15 -5.10411858E-11  3.10474618E-15 -1.98451188E-07
  1.45746016E-08 -4.05738234E-01  7.75124013E-08 -3.70358836E-01  3.94588485E-07
 -2.90158010E-08  8.07857652E-01 -1.55213630E-07  7.37414409E-01 -1.92215059E-08
  2.26895544E-08 -2.31884113E-08 -2.69382058E-15  2.92614061E-12  7.60055514E-16
  2.74216786E-14 -3.12144356E-11 -7.76428138E-15 -4.02149590E-14  4.66136093E-11
  1.17214732E-14  7.12634097E-07 -2.11019376E-07  3.70358836E-01  1.26341870E-06
 -4.05738234E-01 -1.39554258E-06  4.20104432E-07 -7.37414409E-01 -2.47508731E-06
  8.07857652E-01  8.31245867E-03 -1.10472198E-02  1.15394932E-02 -3.70487500E-12
  1.97654541E-13 -1.11230480E-11  3.79733568E-11 -2.10707774E-12  1.14005555E-10
 -5.54028702E-11  3.14557254E-12 -1.66333094E-10 -2.80077484E-01 -8.89691464E-09
  9.90640624E-07 -4.85108430E-01 -1.03818250E-06  5.46177896E-01  1.73903641E-08
 -1.96342795E-06  9.46007863E-01  2.05765521E-06 -3.81147307E-10  4.61045626E-10
 -4.00827356E-10  8.68126950E-15 -3.99904872E-16  5.02032416E-12 -5.37933876E-14
  4.61175574E-15 -5.15358931E-11  4.37479035E-14 -7.27866284E-15  7.52852854E-11
 -1.62968617E-08 -5.62052896E-01 -1.56529080E-07  1.97552115E-08  1.49368508E-07
  3.16930608E-08  1.09229717E+00  3.04236802E-07 -3.83549248E-08 -2.90319448E-07
 -3.57303717E-11  4.23512324E-11 -3.70914457E-11  8.15772007E-12 -1.21638242E-17
 -8.02934613E-12 -8.37650050E-11  2.62694398E-16  8.24717184E-11  1.22389870E-10
 -4.43632854E-16 -1.20525443E-10 -4.86752081E-01  2.39911004E-08  1.49097628E-07
  2.81026446E-01  1.56249543E-07  9.45957097E-01 -4.66244595E-08 -2.89778882E-07
 -5.46148586E-01 -3.03678994E-07  1.42913031E+00  1.47326091E-02 -1.29235296E+00
  2.02471654E-12 -4.66718188E-13  8.42243202E-12 -2.13995339E-11  4.98601869E-12
 -8.90150343E-11  3.20258850E-11 -7.48936342E-12  1.33217135E-10  3.42084583E-03
 -2.46186364E-10 -2.71774155E-09  5.92507882E-03  2.84803717E-09 -2.77288824E-04
  4.63429736E-11 -7.34598428E-10 -4.80278342E-04  7.69985014E-10
Total SCF Density                          R   N=         253
  5.37766112E-04 -3.30017067E-02  2.02525340E+00  9.96899977E-05 -6.11778986E-03
  1.84803308E-05 -9.61965184E-15 -9.43084033E-15  2.54405548E-14  1.99739143E+00
  5.77127909E-15  4.06035617E-15 -1.37831504E-14 -6.69815382E-10  1.99979018E+00
 -3.97241469E-14 -3.97703887E-14  1.06918386E-13  4.01528810E-11  6.39805336E-10
  1.99739143E+00 -6.31358616E-16  3.71489683E-14 -4.45806906E-17  5.31626315E-03
  1.73758142E-09 -1.05454959E-10  1.41497823E-05  1.73960614E-16 -1.08419046E-14
  3.91425861E-17  1.74671062E-09 -9.28189424E-04 -1.66890384E-09  3.84173600E-12
  4.30813000E-07 -2.64245896E-15  1.55568568E-13 -1.85677949E-16 -1.05455296E-10
 -1.66284898E-09  5.31626313E-03 -5.61645275E-13 -3.66936888E-12  1.41497822E-05
  8.83155519E-16 -5.46780507E-14  1.85523610E-16  1.59991779E-03 -5.81089881E-10
  3.88472058E-11  4.25834609E-06  1.66858153E-12  1.88406457E-14  1.28153996E-06
 -2.10683298E-16  1.35918380E-14 -6.65292971E-17 -5.83093103E-10  3.69890738E-03
  5.59621103E-10  1.66524865E-12 -1.71682347E-06 -1.58934536E-12 -1.54087888E-12
  6.84167566E-06  3.78299047E-15 -2.34139747E-13  7.92821547E-16  3.88497074E-11
  5.61714430E-10  1.59991780E-03  1.88475787E-14 -1.59727619E-12  4.25834610E-06
  6.22095847E-14  1.48628443E-12  1.28153997E-06  2.29644851E-04 -1.40928592E-02
  4.25714562E-05 -7.81833349E-14  7.09797673E-16  7.73129085E-14  8.79580084E-13
 -9.83017207E-16 -8.49274566E-13 -1.35305208E-12  6.89772930E-16  1.33100717E-12
  1.33752480E+00  4.00912010E-09 -3.45117849E-09  5.44505372E-09 -4.00420406E-15
  5.15455518E-16 -5.89274098E-14  2.53916911E-14 -2.84385242E-15  6.37890320E-13
 -4.26261669E-15 -4.32129394E-15 -9.66526879E-13 -1.51096385E-08  1.78323564E+00
 -6.84994978E-10  1.36297072E-08 -1.56480036E-09 -1.28284184E-15  2.50834289E-14
  1.21141400E-18 -5.47104626E-16 -3.22141882E-13  2.39636576E-15  1.01497376E-15
  5.17820383E-13 -1.04470514E-15  4.22060269E-07 -7.82249656E-09  1.81146419E+00
  3.97755844E-04 -2.44095475E-02  7.37349707E-05  4.75024860E-14  2.75945144E-16
 -3.93736139E-14 -5.08416898E-13  7.41249157E-16  4.87841190E-13  7.82065441E-13
 -6.14998195E-16 -7.64690979E-13 -7.71993835E-01 -2.61706548E-08  7.16098070E-07
  4.46103114E-01  7.17943653E-10 -1.42836031E-08  1.64012822E-09  1.40726311E-15
 -4.36400383E-15  2.40475517E-15 -7.46584588E-15  1.36197638E-14  1.45372468E-15
  3.54239323E-15 -2.32862729E-15  3.93091750E-15 -4.28753423E-07  7.46437194E-09
  4.90493888E-10 -7.58270724E-07  1.81146419E+00 -5.36033279E-05  3.28953894E-03
 -9.93683152E-06 -1.10434320E-14 -2.59034474E-16  1.07932877E-14  1.11902846E-13
 -1.51992947E-16 -1.07566944E-13 -1.72138491E-13  1.21115361E-16  1.68611525E-13
  1.69991257E-01 -2.02286245E-09  4.09371441E-08 -9.81973615E-02 -5.54222555E-08
  2.16176000E-02  5.14562229E-10 -7.40736865E-10  6.93089463E-10 -1.72456604E-15
 -1.99813571E-16 -7.82308407E-15  3.22456542E-15 -3.61389885E-16  8.10879576E-14
 -5.42838995E-16 -5.49812830E-16 -1.22865503E-13 -1.91863403E-09  2.26685542E-01
  7.22810632E-09 -3.32317796E-09 -6.89720804E-09 -2.57636727E-10  2.88163458E-02
 -3.47472402E-12 -2.93256725E-09 -1.59867840E-10  1.31830183E-15  4.08003744E-15
 -1.54329686E-15 -5.67037572E-17 -3.56745573E-14  2.61272051E-16  1.13574697E-16
  5.73457751E-14 -1.16937339E-16  4.00789890E-08  7.22846688E-09  2.00601325E-01
  8.32170987E-08 -4.60730659E-10  3.67561978E-09  1.82944444E-09  2.22145664E-02
 -9.28437778E-05  5.69764871E-03 -1.72112186E-05  6.91701253E-15 -8.50338335E-17
 -5.48043775E-15 -6.44662556E-14  4.71802880E-17  6.26897475E-14  9.91795649E-14
 -1.93730336E-17 -9.82254607E-14 -9.81973615E-02 -3.50370598E-09  8.47019486E-08
  5.66027114E-02 -8.15356157E-08 -1.24685879E-02 -4.46241507E-10  9.85844642E-09
  7.22011489E-03  3.65154079E-12  3.07321975E-09  1.67566018E-10  4.66840892E-16
  6.14348203E-18 -2.94675705E-15 -8.25943745E-16  1.50802393E-15  1.52435447E-16
  3.92540297E-16 -2.56966765E-16  4.32732334E-16 -5.45242700E-08 -6.89753434E-09
 -4.60729896E-10 -7.99786619E-08  2.00601325E-01 -7.02123232E-09 -1.74569112E-09
 -1.08057526E-10 -8.50153329E-09  2.22145664E-02
Mulliken Charges                           R   N=           1
  2.00000000E+00
ONIOM Charges                              I   N=          16
           2           0           0           0           0           0
           0           0           0           0           0           0
           0           0           0           0
ONIOM Multiplicities                       I   N=          16
           1           0           0           0           0           0
           0           0           0           0           0           0
           0           0           0           0
Atom Layers                                I   N=           1
           1
Atom Modifiers                             I   N=           1
           0
Force Field                                I                0
Int Atom Modified Types                    I   N=           1
           0
Link Atoms                                 I   N=           1
           0
Atom Modified MM Charges                   R   N=           1
  0.00000000E+00
Link Distances                             R   N=           4
  0.00000000E+00  0.00000000E+00  0.00000000E+00  0.00000000E+00
Cartesian Gradient                         R   N=           3
  0.00000000E+00  0.00000000E+00  0.00000000E+00
Dipole Moment                              R   N=           3
  5.69930098E-14  5.47479498E-15  7.15170634E-01
Quadrupole Moment                          R   N=           6
 -6.42669863E-01  1.02960520E+00 -3.86935341E-01 -4.68950846E-07  1.71605578E-08
  4.47486191E-07
QEq coupling tensors                       R   N=           6
  3.31196313E-01  2.75599228E-07 -6.62392622E-01 -2.42612536E-08 -2.62983857E-07
  3.31196309E-01
