 Generated by Multiwfn
GAUSSIAN              9 MOL ORBITALS     52 PRIMITIVES        1 NUCLEI
  Al   1    (CENTRE  1)   0.00000000  0.00000000  0.00000000  CHARGE = 13.0
CENTRE ASSIGNMENTS    1  1  1  1  1  1  1  1  1  1  1  1  1  1  1  1  1  1  1  1
CENTRE ASSIGNMENTS    1  1  1  1  1  1  1  1  1  1  1  1  1  1  1  1  1  1  1  1
CENTRE ASSIGNMENTS    1  1  1  1  1  1  1  1  1  1  1  1
TYPE ASSIGNMENTS      1  1  1  1  1  1  1  1  1  1  1  1  2  2  2  2  2  2  3  3
TYPE ASSIGNMENTS      3  3  3  3  4  4  4  4  4  4  1  1  1  2  2  2  3  3  3  4
TYPE ASSIGNMENTS      4  4  1  2  3  4  5  6  7  8  9 10
EXPONENTS  0.1398310D+05 0.2098750D+04 0.4777050D+03 0.1343600D+03 0.4287090D+02
EXPONENTS  0.1451890D+02 0.2396680D+03 0.5744190D+02 0.1828590D+02 0.6599140D+01
EXPONENTS  0.2490490D+01 0.9445450D+00 0.2396680D+03 0.5744190D+02 0.1828590D+02
EXPONENTS  0.6599140D+01 0.2490490D+01 0.9445450D+00 0.2396680D+03 0.5744190D+02
EXPONENTS  0.1828590D+02 0.6599140D+01 0.2490490D+01 0.9445450D+00 0.2396680D+03
EXPONENTS  0.5744190D+02 0.1828590D+02 0.6599140D+01 0.2490490D+01 0.9445450D+00
EXPONENTS  0.1277900D+01 0.3975900D+00 0.1600950D+00 0.1277900D+01 0.3975900D+00
EXPONENTS  0.1600950D+00 0.1277900D+01 0.3975900D+00 0.1600950D+00 0.1277900D+01
EXPONENTS  0.3975900D+00 0.1600950D+00 0.5565770D-01 0.5565770D-01 0.5565770D-01
EXPONENTS  0.5565770D-01 0.3250000D+00 0.3250000D+00 0.3250000D+00 0.3250000D+00
EXPONENTS  0.3250000D+00 0.3250000D+00
MO    1     MO 0.0        OCC NO =    2.0000000  ORB. ENERGY =  -58.487203
  0.17751271D+01  0.32742681D+01  0.52896098D+01  0.69219468D+01  0.58010786D+01
  0.17098067D+01 -0.14881165D-02 -0.65165304D-02 -0.84522102D-02  0.39749500D-02
  0.10139439D-01  0.31500573D-02  0.00000000D+00  0.00000000D+00  0.00000000D+00
  0.00000000D+00  0.00000000D+00  0.00000000D+00  0.00000000D+00  0.00000000D+00
  0.00000000D+00  0.00000000D+00  0.00000000D+00  0.00000000D+00  0.00000000D+00
  0.00000000D+00  0.00000000D+00  0.00000000D+00  0.00000000D+00  0.00000000D+00
  0.38648241D-02 -0.10227446D-04 -0.39074498D-02  0.00000000D+00  0.00000000D+00
  0.00000000D+00  0.00000000D+00  0.00000000D+00  0.00000000D+00  0.00000000D+00
  0.00000000D+00  0.00000000D+00  0.27043706D-03  0.00000000D+00  0.00000000D+00
  0.00000000D+00  0.15883787D-02  0.15864845D-02  0.15883787D-02  0.00000000D+00
  0.00000000D+00  0.00000000D+00
MO    2     MO 0.0        OCC NO =    2.0000000  ORB. ENERGY =   -4.905886
 -0.46855121D+00 -0.86425490D+00 -0.13962116D+01 -0.18270729D+01 -0.15312157D+01
 -0.45130966D+00 -0.13091341D+00 -0.57327583D+00 -0.74356252D+00  0.34968650D+00
  0.89199231D+00  0.27711859D+00  0.00000000D+00  0.00000000D+00  0.00000000D+00
  0.00000000D+00  0.00000000D+00  0.00000000D+00  0.00000000D+00  0.00000000D+00
  0.00000000D+00  0.00000000D+00  0.00000000D+00  0.00000000D+00  0.00000000D+00
  0.00000000D+00  0.00000000D+00  0.00000000D+00  0.00000000D+00  0.00000000D+00
 -0.10160962D-03  0.26888855D-06  0.10273029D-03  0.00000000D+00  0.00000000D+00
  0.00000000D+00  0.00000000D+00  0.00000000D+00  0.00000000D+00  0.00000000D+00
  0.00000000D+00  0.00000000D+00 -0.67193236D-04  0.00000000D+00  0.00000000D+00
  0.00000000D+00  0.63682340D-03  0.52189531D-03  0.63682340D-03  0.00000000D+00
  0.00000000D+00  0.00000000D+00
MO    3     MO 0.0        OCC NO =    2.0000000  ORB. ENERGY =   -3.214357
  0.00000000D+00  0.00000000D+00  0.00000000D+00  0.00000000D+00  0.00000000D+00
  0.00000000D+00  0.00000000D+00  0.00000000D+00  0.00000000D+00  0.00000000D+00
  0.00000000D+00  0.00000000D+00  0.61548420D+01  0.74445512D+01  0.73073758D+01
  0.49565173D+01  0.19926043D+01  0.35083582D+00  0.00000000D+00  0.00000000D+00
  0.00000000D+00  0.00000000D+00  0.00000000D+00  0.00000000D+00  0.00000000D+00
  0.00000000D+00  0.00000000D+00  0.00000000D+00  0.00000000D+00  0.00000000D+00
  0.00000000D+00  0.00000000D+00  0.00000000D+00 -0.71866784D-03  0.23317838D-02
  0.24620053D-02  0.00000000D+00  0.00000000D+00  0.00000000D+00  0.00000000D+00
  0.00000000D+00  0.00000000D+00  0.00000000D+00 -0.21356137D-03  0.00000000D+00
  0.00000000D+00  0.00000000D+00  0.00000000D+00  0.00000000D+00  0.00000000D+00
  0.00000000D+00  0.00000000D+00
MO    4     MO 0.0        OCC NO =    2.0000000  ORB. ENERGY =   -3.214357
  0.00000000D+00  0.00000000D+00  0.00000000D+00  0.00000000D+00  0.00000000D+00
  0.00000000D+00  0.00000000D+00  0.00000000D+00  0.00000000D+00  0.00000000D+00
  0.00000000D+00  0.00000000D+00  0.00000000D+00  0.00000000D+00  0.00000000D+00
  0.00000000D+00  0.00000000D+00  0.00000000D+00  0.00000000D+00  0.00000000D+00
  0.00000000D+00  0.00000000D+00  0.00000000D+00  0.00000000D+00  0.61548420D+01
  0.74445512D+01  0.73073758D+01  0.49565173D+01  0.19926043D+01  0.35083582D+00
  0.00000000D+00  0.00000000D+00  0.00000000D+00  0.00000000D+00  0.00000000D+00
  0.00000000D+00  0.00000000D+00  0.00000000D+00  0.00000000D+00 -0.71866784D-03
  0.23317838D-02  0.24620053D-02  0.00000000D+00  0.00000000D+00  0.00000000D+00
 -0.21356137D-03  0.00000000D+00  0.00000000D+00  0.00000000D+00  0.00000000D+00
  0.00000000D+00  0.00000000D+00
MO    5     MO 0.0        OCC NO =    2.0000000  ORB. ENERGY =   -3.209991
  0.00000000D+00  0.00000000D+00  0.00000000D+00  0.00000000D+00  0.00000000D+00
  0.00000000D+00  0.00000000D+00  0.00000000D+00  0.00000000D+00  0.00000000D+00
  0.00000000D+00  0.00000000D+00  0.00000000D+00  0.00000000D+00  0.00000000D+00
  0.00000000D+00  0.00000000D+00  0.00000000D+00  0.61582452D+01  0.74486675D+01
  0.73114164D+01  0.49592579D+01  0.19937061D+01  0.35102981D+00  0.00000000D+00
  0.00000000D+00  0.00000000D+00  0.00000000D+00  0.00000000D+00  0.00000000D+00
  0.00000000D+00  0.00000000D+00  0.00000000D+00  0.00000000D+00  0.00000000D+00
  0.00000000D+00 -0.63770037D-03  0.20690774D-02  0.21846277D-02  0.00000000D+00
  0.00000000D+00  0.00000000D+00  0.00000000D+00  0.00000000D+00 -0.16240631D-03
  0.00000000D+00  0.00000000D+00  0.00000000D+00  0.00000000D+00  0.00000000D+00
  0.00000000D+00  0.00000000D+00
MO    6     MO 0.0        OCC NO =    2.0000000  ORB. ENERGY =   -0.381231
  0.10217877D+00  0.18847140D+00  0.30447726D+00  0.39843684D+00  0.33391811D+00
  0.98418840D-01  0.36258907D-01  0.15877942D+00  0.20594350D+00 -0.96852193D-01
 -0.24705389D+00 -0.76753157D-01  0.00000000D+00  0.00000000D+00  0.00000000D+00
  0.00000000D+00  0.00000000D+00  0.00000000D+00  0.00000000D+00  0.00000000D+00
  0.00000000D+00  0.00000000D+00  0.00000000D+00  0.00000000D+00  0.00000000D+00
  0.00000000D+00  0.00000000D+00  0.00000000D+00  0.00000000D+00  0.00000000D+00
 -0.12881061D+00  0.34087025D-03  0.13023128D+00  0.00000000D+00  0.00000000D+00
  0.00000000D+00  0.00000000D+00  0.00000000D+00  0.00000000D+00  0.00000000D+00
  0.00000000D+00  0.00000000D+00  0.34078827D-01  0.00000000D+00  0.00000000D+00
  0.00000000D+00  0.32403849D-05  0.21830541D-03  0.32403849D-05  0.00000000D+00
  0.00000000D+00  0.00000000D+00
MO    7     MO 0.0        OCC NO =    0.3333333  ORB. ENERGY =   -0.043863
  0.00000000D+00  0.00000000D+00  0.00000000D+00  0.00000000D+00  0.00000000D+00
  0.00000000D+00  0.00000000D+00  0.00000000D+00  0.00000000D+00  0.00000000D+00
  0.00000000D+00  0.00000000D+00  0.00000000D+00  0.00000000D+00  0.00000000D+00
  0.00000000D+00  0.00000000D+00  0.00000000D+00 -0.11730301D+01 -0.14188313D+01
 -0.13926875D+01 -0.94464550D+00 -0.37976357D+00 -0.66864587D-01  0.00000000D+00
  0.00000000D+00  0.00000000D+00  0.00000000D+00  0.00000000D+00  0.00000000D+00
  0.00000000D+00  0.00000000D+00  0.00000000D+00  0.00000000D+00  0.00000000D+00
  0.00000000D+00 -0.18783332D-01  0.60944247D-01  0.64347756D-01  0.00000000D+00
  0.00000000D+00  0.00000000D+00  0.00000000D+00  0.00000000D+00  0.21607956D-01
  0.00000000D+00  0.00000000D+00  0.00000000D+00  0.00000000D+00  0.00000000D+00
  0.00000000D+00  0.00000000D+00
MO    8     MO 0.0        OCC NO =    0.3333333  ORB. ENERGY =   -0.043863
  0.00000000D+00  0.00000000D+00  0.00000000D+00  0.00000000D+00  0.00000000D+00
  0.00000000D+00  0.00000000D+00  0.00000000D+00  0.00000000D+00  0.00000000D+00
  0.00000000D+00  0.00000000D+00  0.00000000D+00  0.00000000D+00  0.00000000D+00
  0.00000000D+00  0.00000000D+00  0.00000000D+00  0.00000000D+00  0.00000000D+00
  0.00000000D+00  0.00000000D+00  0.00000000D+00  0.00000000D+00 -0.11730301D+01
 -0.14188313D+01 -0.13926875D+01 -0.94464550D+00 -0.37976357D+00 -0.66864587D-01
  0.00000000D+00  0.00000000D+00  0.00000000D+00  0.00000000D+00  0.00000000D+00
  0.00000000D+00  0.00000000D+00  0.00000000D+00  0.00000000D+00 -0.18783332D-01
  0.60944247D-01  0.64347756D-01  0.00000000D+00  0.00000000D+00  0.00000000D+00
  0.21607956D-01  0.00000000D+00  0.00000000D+00  0.00000000D+00  0.00000000D+00
  0.00000000D+00  0.00000000D+00
MO    9     MO 0.0        OCC NO =    0.3333333  ORB. ENERGY =   -0.043863
  0.00000000D+00  0.00000000D+00  0.00000000D+00  0.00000000D+00  0.00000000D+00
  0.00000000D+00  0.00000000D+00  0.00000000D+00  0.00000000D+00  0.00000000D+00
  0.00000000D+00  0.00000000D+00 -0.11730301D+01 -0.14188313D+01 -0.13926875D+01
 -0.94464550D+00 -0.37976357D+00 -0.66864587D-01  0.00000000D+00  0.00000000D+00
  0.00000000D+00  0.00000000D+00  0.00000000D+00  0.00000000D+00  0.00000000D+00
  0.00000000D+00  0.00000000D+00  0.00000000D+00  0.00000000D+00  0.00000000D+00
  0.00000000D+00  0.00000000D+00  0.00000000D+00 -0.18783332D-01  0.60944247D-01
  0.64347756D-01  0.00000000D+00  0.00000000D+00  0.00000000D+00  0.00000000D+00
  0.00000000D+00  0.00000000D+00  0.00000000D+00  0.21607956D-01  0.00000000D+00
  0.00000000D+00  0.00000000D+00  0.00000000D+00  0.00000000D+00  0.00000000D+00
  0.00000000D+00  0.00000000D+00
END DATA
 THE  HF ENERGY =   -241.854773084945 THE VIRIAL(-V/T)=   2.00022089
