 Generated by Multiwfn
GAUSSIAN              9 MOL ORBITALS     52 PRIMITIVES        1 NUCLEI
  Ar   1    (CENTRE  1)   0.00000000  0.00000000  0.00000000  CHARGE = 18.0
CENTRE ASSIGNMENTS    1  1  1  1  1  1  1  1  1  1  1  1  1  1  1  1  1  1  1  1
CENTRE ASSIGNMENTS    1  1  1  1  1  1  1  1  1  1  1  1  1  1  1  1  1  1  1  1
CENTRE ASSIGNMENTS    1  1  1  1  1  1  1  1  1  1  1  1
TYPE ASSIGNMENTS      1  1  1  1  1  1  1  1  1  1  1  1  2  2  2  2  2  2  3  3
TYPE ASSIGNMENTS      3  3  3  3  4  4  4  4  4  4  1  1  1  2  2  2  3  3  3  4
TYPE ASSIGNMENTS      4  4  1  2  3  4  5  6  7  8  9 10
EXPONENTS  0.2834830D+05 0.4257620D+04 0.9698570D+03 0.2732630D+03 0.8736950D+02
EXPONENTS  0.2968670D+02 0.5758910D+03 0.1368160D+03 0.4380980D+02 0.1620940D+02
EXPONENTS  0.6460840D+01 0.2651140D+01 0.5758910D+03 0.1368160D+03 0.4380980D+02
EXPONENTS  0.1620940D+02 0.6460840D+01 0.2651140D+01 0.5758910D+03 0.1368160D+03
EXPONENTS  0.4380980D+02 0.1620940D+02 0.6460840D+01 0.2651140D+01 0.5758910D+03
EXPONENTS  0.1368160D+03 0.4380980D+02 0.1620940D+02 0.6460840D+01 0.2651140D+01
EXPONENTS  0.3860280D+01 0.1413730D+01 0.5166460D+00 0.3860280D+01 0.1413730D+01
EXPONENTS  0.5166460D+00 0.3860280D+01 0.1413730D+01 0.5166460D+00 0.3860280D+01
EXPONENTS  0.1413730D+01 0.5166460D+00 0.1738880D+00 0.1738880D+00 0.1738880D+00
EXPONENTS  0.1738880D+00 0.8500000D+00 0.8500000D+00 0.8500000D+00 0.8500000D+00
EXPONENTS  0.8500000D+00 0.8500000D+00
MO    1     MO 0.0        OCC NO =    2.0000000  ORB. ENERGY = -118.600469
  0.28306398D+01  0.52262799D+01  0.84761430D+01  0.11269055D+02  0.97819247D+01
  0.30879251D+01 -0.26904426D-02 -0.12326245D-01 -0.19998393D-01  0.23712343D-02
  0.24804174D-01  0.10759132D-01  0.00000000D+00  0.00000000D+00  0.00000000D+00
  0.00000000D+00  0.00000000D+00  0.00000000D+00  0.00000000D+00  0.00000000D+00
  0.00000000D+00  0.00000000D+00  0.00000000D+00  0.00000000D+00  0.00000000D+00
  0.00000000D+00  0.00000000D+00  0.00000000D+00  0.00000000D+00  0.00000000D+00
  0.77844887D-02 -0.54207729D-03 -0.72821970D-02  0.00000000D+00  0.00000000D+00
  0.00000000D+00  0.00000000D+00  0.00000000D+00  0.00000000D+00  0.00000000D+00
  0.00000000D+00  0.00000000D+00  0.93720553D-04  0.00000000D+00  0.00000000D+00
  0.00000000D+00  0.69608523D-02  0.69608523D-02  0.69608523D-02  0.00000000D+00
  0.00000000D+00  0.00000000D+00
MO    2     MO 0.0        OCC NO =    2.0000000  ORB. ENERGY =  -12.318317
 -0.82678250D+00 -0.15265089D+01 -0.24757394D+01 -0.32915022D+01 -0.28571364D+01
 -0.90193123D+00 -0.18648596D+00 -0.85438417D+00 -0.13861732D+01  0.16436028D+00
  0.17192822D+01  0.74576094D+00  0.00000000D+00  0.00000000D+00  0.00000000D+00
  0.00000000D+00  0.00000000D+00  0.00000000D+00  0.00000000D+00  0.00000000D+00
  0.00000000D+00  0.00000000D+00  0.00000000D+00  0.00000000D+00  0.00000000D+00
  0.00000000D+00  0.00000000D+00  0.00000000D+00  0.00000000D+00  0.00000000D+00
 -0.14503817D-01  0.10099815D-02  0.13567963D-01  0.00000000D+00  0.00000000D+00
  0.00000000D+00  0.00000000D+00  0.00000000D+00  0.00000000D+00  0.00000000D+00
  0.00000000D+00  0.00000000D+00 -0.10685050D-02  0.00000000D+00  0.00000000D+00
  0.00000000D+00 -0.25765257D-02 -0.25765257D-02 -0.25765257D-02  0.00000000D+00
  0.00000000D+00  0.00000000D+00
MO    3     MO 0.0        OCC NO =    2.0000000  ORB. ENERGY =   -9.569525
  0.00000000D+00  0.00000000D+00  0.00000000D+00  0.00000000D+00  0.00000000D+00
  0.00000000D+00  0.00000000D+00  0.00000000D+00  0.00000000D+00  0.00000000D+00
  0.00000000D+00  0.00000000D+00  0.15201475D+02  0.19360865D+02  0.20177098D+02
  0.14894084D+02  0.66327062D+01  0.12288975D+01  0.00000000D+00  0.00000000D+00
  0.00000000D+00  0.00000000D+00  0.00000000D+00  0.00000000D+00  0.00000000D+00
  0.00000000D+00  0.00000000D+00  0.00000000D+00  0.00000000D+00  0.00000000D+00
  0.00000000D+00  0.00000000D+00  0.00000000D+00 -0.25861038D-02  0.15024697D-01
  0.97835395D-02  0.00000000D+00  0.00000000D+00  0.00000000D+00  0.00000000D+00
  0.00000000D+00  0.00000000D+00  0.00000000D+00 -0.71547923D-03  0.00000000D+00
  0.00000000D+00  0.00000000D+00  0.00000000D+00  0.00000000D+00  0.00000000D+00
  0.00000000D+00  0.00000000D+00
MO    4     MO 0.0        OCC NO =    2.0000000  ORB. ENERGY =   -9.569525
  0.00000000D+00  0.00000000D+00  0.00000000D+00  0.00000000D+00  0.00000000D+00
  0.00000000D+00  0.00000000D+00  0.00000000D+00  0.00000000D+00  0.00000000D+00
  0.00000000D+00  0.00000000D+00  0.00000000D+00  0.00000000D+00  0.00000000D+00
  0.00000000D+00  0.00000000D+00  0.00000000D+00  0.15201475D+02  0.19360865D+02
  0.20177098D+02  0.14894084D+02  0.66327062D+01  0.12288975D+01  0.00000000D+00
  0.00000000D+00  0.00000000D+00  0.00000000D+00  0.00000000D+00  0.00000000D+00
  0.00000000D+00  0.00000000D+00  0.00000000D+00  0.00000000D+00  0.00000000D+00
  0.00000000D+00 -0.25861038D-02  0.15024697D-01  0.97835395D-02  0.00000000D+00
  0.00000000D+00  0.00000000D+00  0.00000000D+00  0.00000000D+00 -0.71547923D-03
  0.00000000D+00  0.00000000D+00  0.00000000D+00  0.00000000D+00  0.00000000D+00
  0.00000000D+00  0.00000000D+00
MO    5     MO 0.0        OCC NO =    2.0000000  ORB. ENERGY =   -9.569525
  0.00000000D+00  0.00000000D+00  0.00000000D+00  0.00000000D+00  0.00000000D+00
  0.00000000D+00  0.00000000D+00  0.00000000D+00  0.00000000D+00  0.00000000D+00
  0.00000000D+00  0.00000000D+00  0.00000000D+00  0.00000000D+00  0.00000000D+00
  0.00000000D+00  0.00000000D+00  0.00000000D+00  0.00000000D+00  0.00000000D+00
  0.00000000D+00  0.00000000D+00  0.00000000D+00  0.00000000D+00  0.15201475D+02
  0.19360865D+02  0.20177098D+02  0.14894084D+02  0.66327062D+01  0.12288975D+01
  0.00000000D+00  0.00000000D+00  0.00000000D+00  0.00000000D+00  0.00000000D+00
  0.00000000D+00  0.00000000D+00  0.00000000D+00  0.00000000D+00 -0.25861038D-02
  0.15024697D-01  0.97835395D-02  0.00000000D+00  0.00000000D+00  0.00000000D+00
 -0.71547923D-03  0.00000000D+00  0.00000000D+00  0.00000000D+00  0.00000000D+00
  0.00000000D+00  0.00000000D+00
MO    6     MO 0.0        OCC NO =    2.0000000  ORB. ENERGY =   -1.274718
  0.25009644D+00  0.46175921D+00  0.74889542D+00  0.99565845D+00  0.86426558D+00
  0.27282846D+00  0.70710825D-01  0.32396118D+00  0.52560231D+00 -0.62321320D-01
 -0.65190894D+00 -0.28277396D+00  0.00000000D+00  0.00000000D+00  0.00000000D+00
  0.00000000D+00  0.00000000D+00  0.00000000D+00  0.00000000D+00  0.00000000D+00
  0.00000000D+00  0.00000000D+00  0.00000000D+00  0.00000000D+00  0.00000000D+00
  0.00000000D+00  0.00000000D+00  0.00000000D+00  0.00000000D+00  0.00000000D+00
 -0.38117237D+00  0.26543154D-01  0.35657734D+00  0.00000000D+00  0.00000000D+00
  0.00000000D+00  0.00000000D+00  0.00000000D+00  0.00000000D+00  0.00000000D+00
  0.00000000D+00  0.00000000D+00  0.66640165D-01  0.00000000D+00  0.00000000D+00
  0.00000000D+00 -0.13644704D-02 -0.13644704D-02 -0.13644704D-02  0.00000000D+00
  0.00000000D+00  0.00000000D+00
MO    7     MO 0.0        OCC NO =    2.0000000  ORB. ENERGY =   -0.588946
  0.00000000D+00  0.00000000D+00  0.00000000D+00  0.00000000D+00  0.00000000D+00
  0.00000000D+00  0.00000000D+00  0.00000000D+00  0.00000000D+00  0.00000000D+00
  0.00000000D+00  0.00000000D+00  0.00000000D+00  0.00000000D+00  0.00000000D+00
  0.00000000D+00  0.00000000D+00  0.00000000D+00 -0.45675968D+01 -0.58173716D+01
 -0.60626257D+01 -0.44752349D+01 -0.19929335D+01 -0.36924762D+00  0.00000000D+00
  0.00000000D+00  0.00000000D+00  0.00000000D+00  0.00000000D+00  0.00000000D+00
  0.00000000D+00  0.00000000D+00  0.00000000D+00  0.00000000D+00  0.00000000D+00
  0.00000000D+00 -0.92430711D-01  0.53700219D+00  0.34967642D+00  0.00000000D+00
  0.00000000D+00  0.00000000D+00  0.00000000D+00  0.00000000D+00  0.62110857D-01
  0.00000000D+00  0.00000000D+00  0.00000000D+00  0.00000000D+00  0.00000000D+00
  0.00000000D+00  0.00000000D+00
MO    8     MO 0.0        OCC NO =    2.0000000  ORB. ENERGY =   -0.588946
  0.00000000D+00  0.00000000D+00  0.00000000D+00  0.00000000D+00  0.00000000D+00
  0.00000000D+00  0.00000000D+00  0.00000000D+00  0.00000000D+00  0.00000000D+00
  0.00000000D+00  0.00000000D+00  0.00000000D+00  0.00000000D+00  0.00000000D+00
  0.00000000D+00  0.00000000D+00  0.00000000D+00  0.00000000D+00  0.00000000D+00
  0.00000000D+00  0.00000000D+00  0.00000000D+00  0.00000000D+00 -0.45675968D+01
 -0.58173716D+01 -0.60626257D+01 -0.44752349D+01 -0.19929335D+01 -0.36924762D+00
  0.00000000D+00  0.00000000D+00  0.00000000D+00  0.00000000D+00  0.00000000D+00
  0.00000000D+00  0.00000000D+00  0.00000000D+00  0.00000000D+00 -0.92430711D-01
  0.53700219D+00  0.34967642D+00  0.00000000D+00  0.00000000D+00  0.00000000D+00
  0.62110857D-01  0.00000000D+00  0.00000000D+00  0.00000000D+00  0.00000000D+00
  0.00000000D+00  0.00000000D+00
MO    9     MO 0.0        OCC NO =    2.0000000  ORB. ENERGY =   -0.588946
  0.00000000D+00  0.00000000D+00  0.00000000D+00  0.00000000D+00  0.00000000D+00
  0.00000000D+00  0.00000000D+00  0.00000000D+00  0.00000000D+00  0.00000000D+00
  0.00000000D+00  0.00000000D+00 -0.45675968D+01 -0.58173716D+01 -0.60626257D+01
 -0.44752349D+01 -0.19929335D+01 -0.36924762D+00  0.00000000D+00  0.00000000D+00
  0.00000000D+00  0.00000000D+00  0.00000000D+00  0.00000000D+00  0.00000000D+00
  0.00000000D+00  0.00000000D+00  0.00000000D+00  0.00000000D+00  0.00000000D+00
  0.00000000D+00  0.00000000D+00  0.00000000D+00 -0.92430711D-01  0.53700219D+00
  0.34967642D+00  0.00000000D+00  0.00000000D+00  0.00000000D+00  0.00000000D+00
  0.00000000D+00  0.00000000D+00  0.00000000D+00  0.62110857D-01  0.00000000D+00
  0.00000000D+00  0.00000000D+00  0.00000000D+00  0.00000000D+00  0.00000000D+00
  0.00000000D+00  0.00000000D+00
END DATA
 THE  HF ENERGY =   -526.773746770940 THE VIRIAL(-V/T)=   2.00056294
