 Generated by Multiwfn
GAUSSIAN              2 MOL ORBITALS     28 PRIMITIVES        1 NUCLEI
  Be   1    (CENTRE  1)   0.00000000  0.00000000  0.00000000  CHARGE =  4.0
CENTRE ASSIGNMENTS    1  1  1  1  1  1  1  1  1  1  1  1  1  1  1  1  1  1  1  1
CENTRE ASSIGNMENTS    1  1  1  1  1  1  1  1
TYPE ASSIGNMENTS      1  1  1  1  1  1  1  1  1  2  2  2  3  3  3  4  4  4  1  2
TYPE ASSIGNMENTS      3  4  5  6  7  8  9 10
EXPONENTS  0.1264586D+04 0.1899368D+03 0.4315909D+02 0.1209866D+02 0.3806323D+01
EXPONENTS  0.1272890D+01 0.3196463D+01 0.7478133D+00 0.2199663D+00 0.3196463D+01
EXPONENTS  0.7478133D+00 0.2199663D+00 0.3196463D+01 0.7478133D+00 0.2199663D+00
EXPONENTS  0.3196463D+01 0.7478133D+00 0.2199663D+00 0.8230990D-01 0.8230990D-01
EXPONENTS  0.8230990D-01 0.8230990D-01 0.4000000D+00 0.4000000D+00 0.4000000D+00
EXPONENTS  0.4000000D+00 0.4000000D+00 0.4000000D+00
MO    1     MO 0.0        OCC NO =    2.0000000  ORB. ENERGY =   -4.709456
  0.29344804D+00  0.54007050D+00  0.86374799D+00  0.10946828D+01  0.90978870D+00
  0.30400585D+00 -0.15220576D-02 -0.10431391D-02  0.21547156D-02  0.00000000D+00
  0.00000000D+00  0.00000000D+00  0.00000000D+00  0.00000000D+00  0.00000000D+00
  0.00000000D+00  0.00000000D+00  0.00000000D+00 -0.52893195D-03  0.00000000D+00
  0.00000000D+00  0.00000000D+00  0.11285342D-02  0.11285342D-02  0.11285342D-02
  0.00000000D+00  0.00000000D+00  0.00000000D+00
MO    2     MO 0.0        OCC NO =    2.0000000  ORB. ENERGY =   -0.301538
 -0.64944794D-01 -0.11952633D+00 -0.19116139D+00 -0.24227100D+00 -0.20135095D+00
 -0.67281409D-01 -0.48378583D-01 -0.33156164D-01  0.68487608D-01  0.00000000D+00
  0.00000000D+00  0.00000000D+00  0.00000000D+00  0.00000000D+00  0.00000000D+00
  0.00000000D+00  0.00000000D+00  0.00000000D+00  0.83681292D-01  0.00000000D+00
  0.00000000D+00  0.00000000D+00  0.50458888D-02  0.50458888D-02  0.50458888D-02
  0.00000000D+00  0.00000000D+00  0.00000000D+00
END DATA
 THE  HF ENERGY =    -14.566944406204 THE VIRIAL(-V/T)=   1.99251696
