 Generated by Multiwfn
GAUSSIAN             18 MOL ORBITALS     83 PRIMITIVES        1 NUCLEI
  Br   1    (CENTRE  1)   0.00000000  0.00000000  0.00000000  CHARGE = 35.0
CENTRE ASSIGNMENTS    1  1  1  1  1  1  1  1  1  1  1  1  1  1  1  1  1  1  1  1
CENTRE ASSIGNMENTS    1  1  1  1  1  1  1  1  1  1  1  1  1  1  1  1  1  1  1  1
CENTRE ASSIGNMENTS    1  1  1  1  1  1  1  1  1  1  1  1  1  1  1  1  1  1  1  1
CENTRE ASSIGNMENTS    1  1  1  1  1  1  1  1  1  1  1  1  1  1  1  1  1  1  1  1
CENTRE ASSIGNMENTS    1  1  1
TYPE ASSIGNMENTS      1  1  1  1  1  1  1  1  1  1  1  1  1  1  2  2  2  2  2  2
TYPE ASSIGNMENTS      3  3  3  3  3  3  4  4  4  4  4  4  2  2  2  3  3  3  4  4
TYPE ASSIGNMENTS      4  2  3  4  2  3  4  5  5  5  5  5  6  6  6  6  6  7  7  7
TYPE ASSIGNMENTS      7  7  8  8  8  8  8  9  9  9  9  9 10 10 10 10 10  5  6  7
TYPE ASSIGNMENTS      8  9 10
EXPONENTS  0.5743000D+06 0.8907000D+05 0.2021000D+05 0.5736000D+04 0.1899000D+04
EXPONENTS  0.6987000D+03 0.2778000D+03 0.1152000D+03 0.3597000D+02 0.1550000D+02
EXPONENTS  0.4771000D+01 0.2077000D+01 0.4211000D+00 0.1610000D+00 0.4406000D+04
EXPONENTS  0.1042000D+04 0.3321000D+03 0.1219000D+03 0.4924000D+02 0.2116000D+02
EXPONENTS  0.4406000D+04 0.1042000D+04 0.3321000D+03 0.1219000D+03 0.4924000D+02
EXPONENTS  0.2116000D+02 0.4406000D+04 0.1042000D+04 0.3321000D+03 0.1219000D+03
EXPONENTS  0.4924000D+02 0.2116000D+02 0.8836000D+01 0.3829000D+01 0.1643000D+01
EXPONENTS  0.8836000D+01 0.3829000D+01 0.1643000D+01 0.8836000D+01 0.3829000D+01
EXPONENTS  0.1643000D+01 0.4650000D+00 0.4650000D+00 0.4650000D+00 0.1427000D+00
EXPONENTS  0.1427000D+00 0.1427000D+00 0.1084000D+03 0.3071000D+02 0.1066000D+02
EXPONENTS  0.3851000D+01 0.1317000D+01 0.1084000D+03 0.3071000D+02 0.1066000D+02
EXPONENTS  0.3851000D+01 0.1317000D+01 0.1084000D+03 0.3071000D+02 0.1066000D+02
EXPONENTS  0.3851000D+01 0.1317000D+01 0.1084000D+03 0.3071000D+02 0.1066000D+02
EXPONENTS  0.3851000D+01 0.1317000D+01 0.1084000D+03 0.3071000D+02 0.1066000D+02
EXPONENTS  0.3851000D+01 0.1317000D+01 0.1084000D+03 0.3071000D+02 0.1066000D+02
EXPONENTS  0.3851000D+01 0.1317000D+01 0.3380000D+00 0.3380000D+00 0.3380000D+00
EXPONENTS  0.3380000D+00 0.3380000D+00 0.3380000D+00
MO    1     MO 0.0        OCC NO =    2.0000000  ORB. ENERGY = -490.097242
  0.31164572D+01  0.58956933D+01  0.10047656D+02  0.15902512D+02  0.22134085D+02
  0.25766330D+02  0.20725661D+02  0.71554823D+01  0.94409058D-01  0.13504277D+00
 -0.99267961D-01 -0.57252625D-01 -0.97648704D-02 -0.30081473D-02  0.00000000D+00
  0.00000000D+00  0.00000000D+00  0.00000000D+00  0.00000000D+00  0.00000000D+00
  0.00000000D+00  0.00000000D+00  0.00000000D+00  0.00000000D+00  0.00000000D+00
  0.00000000D+00  0.00000000D+00  0.00000000D+00  0.00000000D+00  0.00000000D+00
  0.00000000D+00  0.00000000D+00  0.00000000D+00  0.00000000D+00  0.00000000D+00
  0.00000000D+00  0.00000000D+00  0.00000000D+00  0.00000000D+00  0.00000000D+00
  0.00000000D+00  0.00000000D+00  0.00000000D+00  0.00000000D+00  0.00000000D+00
  0.00000000D+00  0.00000000D+00  0.55375284D+01  0.37863278D+01  0.16295730D+01
  0.36680042D+00  0.30600952D-01  0.55375284D+01  0.37863278D+01  0.16295730D+01
  0.36680042D+00  0.30600952D-01  0.55376490D+01  0.37864103D+01  0.16296085D+01
  0.36680841D+00  0.30601618D-01  0.00000000D+00  0.00000000D+00  0.00000000D+00
  0.00000000D+00  0.00000000D+00  0.00000000D+00  0.00000000D+00  0.00000000D+00
  0.00000000D+00  0.00000000D+00  0.00000000D+00  0.00000000D+00  0.00000000D+00
  0.00000000D+00  0.00000000D+00  0.24617022D-02  0.24617022D-02  0.24615864D-02
  0.00000000D+00  0.00000000D+00  0.00000000D+00
MO    2     MO 0.0        OCC NO =    2.0000000  ORB. ENERGY =  -64.509981
 -0.13280941D+01 -0.25124797D+01 -0.42818599D+01 -0.67769362D+01 -0.94325529D+01
 -0.10980453D+02 -0.88323458D+01 -0.30493452D+01  0.33833525D+01  0.48395491D+01
 -0.60985647D+00 -0.44528810D+00 -0.75832314D-01 -0.24062140D-01  0.00000000D+00
  0.00000000D+00  0.00000000D+00  0.00000000D+00  0.00000000D+00  0.00000000D+00
  0.00000000D+00  0.00000000D+00  0.00000000D+00  0.00000000D+00  0.00000000D+00
  0.00000000D+00  0.00000000D+00  0.00000000D+00  0.00000000D+00  0.00000000D+00
  0.00000000D+00  0.00000000D+00  0.00000000D+00  0.00000000D+00  0.00000000D+00
  0.00000000D+00  0.00000000D+00  0.00000000D+00  0.00000000D+00  0.00000000D+00
  0.00000000D+00  0.00000000D+00  0.00000000D+00  0.00000000D+00  0.00000000D+00
  0.00000000D+00  0.00000000D+00  0.42857792D+02  0.29304346D+02  0.12612107D+02
  0.28388579D+01  0.23683657D+00  0.42857792D+02  0.29304346D+02  0.12612107D+02
  0.28388579D+01  0.23683657D+00  0.42866649D+02  0.29310403D+02  0.12614713D+02
  0.28394446D+01  0.23688551D+00  0.00000000D+00  0.00000000D+00  0.00000000D+00
  0.00000000D+00  0.00000000D+00  0.00000000D+00  0.00000000D+00  0.00000000D+00
  0.00000000D+00  0.00000000D+00  0.00000000D+00  0.00000000D+00  0.00000000D+00
  0.00000000D+00  0.00000000D+00  0.19527943D-01  0.19527943D-01  0.19528151D-01
  0.00000000D+00  0.00000000D+00  0.00000000D+00
MO    3     MO 0.0        OCC NO =    2.0000000  ORB. ENERGY =  -58.648679
  0.00000000D+00  0.00000000D+00  0.00000000D+00  0.00000000D+00  0.00000000D+00
  0.00000000D+00  0.00000000D+00  0.00000000D+00  0.00000000D+00  0.00000000D+00
  0.00000000D+00  0.00000000D+00  0.00000000D+00  0.00000000D+00  0.00000000D+00
  0.00000000D+00  0.00000000D+00  0.00000000D+00  0.00000000D+00  0.00000000D+00
  0.00000000D+00  0.00000000D+00  0.00000000D+00  0.00000000D+00  0.00000000D+00
  0.00000000D+00  0.69752868D+02  0.10200989D+03  0.12045064D+03  0.12789963D+03
  0.73733734D+02  0.28480210D+02  0.00000000D+00  0.00000000D+00  0.00000000D+00
  0.00000000D+00  0.00000000D+00  0.00000000D+00  0.39176706D+00  0.25009863D+00
  0.45095280D-01  0.00000000D+00  0.00000000D+00 -0.94302749D-02  0.00000000D+00
  0.00000000D+00  0.88281424D-03  0.00000000D+00  0.00000000D+00  0.00000000D+00
  0.00000000D+00  0.00000000D+00  0.00000000D+00  0.00000000D+00  0.00000000D+00
  0.00000000D+00  0.00000000D+00  0.00000000D+00  0.00000000D+00  0.00000000D+00
  0.00000000D+00  0.00000000D+00  0.00000000D+00  0.00000000D+00  0.00000000D+00
  0.00000000D+00  0.00000000D+00  0.00000000D+00  0.00000000D+00  0.00000000D+00
  0.00000000D+00  0.00000000D+00  0.00000000D+00  0.00000000D+00  0.00000000D+00
  0.00000000D+00  0.00000000D+00  0.00000000D+00  0.00000000D+00  0.00000000D+00
  0.00000000D+00  0.00000000D+00  0.00000000D+00
MO    4     MO 0.0        OCC NO =    2.0000000  ORB. ENERGY =  -58.648192
  0.00000000D+00  0.00000000D+00  0.00000000D+00  0.00000000D+00  0.00000000D+00
  0.00000000D+00  0.00000000D+00  0.00000000D+00  0.00000000D+00  0.00000000D+00
  0.00000000D+00  0.00000000D+00  0.00000000D+00  0.00000000D+00  0.69756137D+02
  0.10201467D+03  0.12045629D+03  0.12790563D+03  0.73737190D+02  0.28481545D+02
  0.00000000D+00  0.00000000D+00  0.00000000D+00  0.00000000D+00  0.00000000D+00
  0.00000000D+00  0.00000000D+00  0.00000000D+00  0.00000000D+00  0.00000000D+00
  0.00000000D+00  0.00000000D+00  0.39103303D+00  0.24963004D+00  0.45010788D-01
  0.00000000D+00  0.00000000D+00  0.00000000D+00  0.00000000D+00  0.00000000D+00
  0.00000000D+00 -0.94095013D-02  0.00000000D+00  0.00000000D+00  0.88164078D-03
  0.00000000D+00  0.00000000D+00  0.00000000D+00  0.00000000D+00  0.00000000D+00
  0.00000000D+00  0.00000000D+00  0.00000000D+00  0.00000000D+00  0.00000000D+00
  0.00000000D+00  0.00000000D+00  0.00000000D+00  0.00000000D+00  0.00000000D+00
  0.00000000D+00  0.00000000D+00  0.00000000D+00  0.00000000D+00  0.00000000D+00
  0.00000000D+00  0.00000000D+00  0.00000000D+00  0.00000000D+00  0.00000000D+00
  0.00000000D+00  0.00000000D+00  0.00000000D+00  0.00000000D+00  0.00000000D+00
  0.00000000D+00  0.00000000D+00  0.00000000D+00  0.00000000D+00  0.00000000D+00
  0.00000000D+00  0.00000000D+00  0.00000000D+00
MO    5     MO 0.0        OCC NO =    2.0000000  ORB. ENERGY =  -58.648192
  0.00000000D+00  0.00000000D+00  0.00000000D+00  0.00000000D+00  0.00000000D+00
  0.00000000D+00  0.00000000D+00  0.00000000D+00  0.00000000D+00  0.00000000D+00
  0.00000000D+00  0.00000000D+00  0.00000000D+00  0.00000000D+00  0.00000000D+00
  0.00000000D+00  0.00000000D+00  0.00000000D+00  0.00000000D+00  0.00000000D+00
  0.69756137D+02  0.10201467D+03  0.12045629D+03  0.12790563D+03  0.73737190D+02
  0.28481545D+02  0.00000000D+00  0.00000000D+00  0.00000000D+00  0.00000000D+00
  0.00000000D+00  0.00000000D+00  0.00000000D+00  0.00000000D+00  0.00000000D+00
  0.39103303D+00  0.24963004D+00  0.45010788D-01  0.00000000D+00  0.00000000D+00
  0.00000000D+00  0.00000000D+00 -0.94095013D-02  0.00000000D+00  0.00000000D+00
  0.88164078D-03  0.00000000D+00  0.00000000D+00  0.00000000D+00  0.00000000D+00
  0.00000000D+00  0.00000000D+00  0.00000000D+00  0.00000000D+00  0.00000000D+00
  0.00000000D+00  0.00000000D+00  0.00000000D+00  0.00000000D+00  0.00000000D+00
  0.00000000D+00  0.00000000D+00  0.00000000D+00  0.00000000D+00  0.00000000D+00
  0.00000000D+00  0.00000000D+00  0.00000000D+00  0.00000000D+00  0.00000000D+00
  0.00000000D+00  0.00000000D+00  0.00000000D+00  0.00000000D+00  0.00000000D+00
  0.00000000D+00  0.00000000D+00  0.00000000D+00  0.00000000D+00  0.00000000D+00
  0.00000000D+00  0.00000000D+00  0.00000000D+00
MO    6     MO 0.0        OCC NO =    2.0000000  ORB. ENERGY =   -9.757185
  0.52679776D+00  0.99659254D+00  0.16984295D+01  0.26881189D+01  0.37414877D+01
  0.43554729D+01  0.35034114D+01  0.12095440D+01 -0.27530244D+01 -0.39379275D+01
  0.20185292D+01  0.15598350D+01  0.11454537D+00  0.35444944D-01  0.00000000D+00
  0.00000000D+00  0.00000000D+00  0.00000000D+00  0.00000000D+00  0.00000000D+00
  0.00000000D+00  0.00000000D+00  0.00000000D+00  0.00000000D+00  0.00000000D+00
  0.00000000D+00  0.00000000D+00  0.00000000D+00  0.00000000D+00  0.00000000D+00
  0.00000000D+00  0.00000000D+00  0.00000000D+00  0.00000000D+00  0.00000000D+00
  0.00000000D+00  0.00000000D+00  0.00000000D+00  0.00000000D+00  0.00000000D+00
  0.00000000D+00  0.00000000D+00  0.00000000D+00  0.00000000D+00  0.00000000D+00
  0.00000000D+00  0.00000000D+00 -0.57926413D+02 -0.39607633D+02 -0.17046471D+02
 -0.38369885D+01 -0.32010732D+00 -0.57926413D+02 -0.39607633D+02 -0.17046471D+02
 -0.38369885D+01 -0.32010732D+00 -0.57590840D+02 -0.39378182D+02 -0.16947720D+02
 -0.38147605D+01 -0.31825291D+00  0.00000000D+00  0.00000000D+00  0.00000000D+00
  0.00000000D+00  0.00000000D+00  0.00000000D+00  0.00000000D+00  0.00000000D+00
  0.00000000D+00  0.00000000D+00  0.00000000D+00  0.00000000D+00  0.00000000D+00
  0.00000000D+00  0.00000000D+00 -0.28616536D-01 -0.28616536D-01 -0.28646444D-01
  0.00000000D+00  0.00000000D+00  0.00000000D+00
MO    7     MO 0.0        OCC NO =    2.0000000  ORB. ENERGY =   -7.504920
  0.00000000D+00  0.00000000D+00  0.00000000D+00  0.00000000D+00  0.00000000D+00
  0.00000000D+00  0.00000000D+00  0.00000000D+00  0.00000000D+00  0.00000000D+00
  0.00000000D+00  0.00000000D+00  0.00000000D+00  0.00000000D+00  0.00000000D+00
  0.00000000D+00  0.00000000D+00  0.00000000D+00  0.00000000D+00  0.00000000D+00
  0.00000000D+00  0.00000000D+00  0.00000000D+00  0.00000000D+00  0.00000000D+00
  0.00000000D+00 -0.30932266D+02 -0.45236807D+02 -0.53414454D+02 -0.56717747D+02
 -0.32697602D+02 -0.12629695D+02  0.00000000D+00  0.00000000D+00  0.00000000D+00
  0.00000000D+00  0.00000000D+00  0.00000000D+00  0.67326931D+01  0.42980574D+01
  0.77498267D+00  0.00000000D+00  0.00000000D+00  0.11252933D-01  0.00000000D+00
  0.00000000D+00 -0.46849650D-03  0.00000000D+00  0.00000000D+00  0.00000000D+00
  0.00000000D+00  0.00000000D+00  0.00000000D+00  0.00000000D+00  0.00000000D+00
  0.00000000D+00  0.00000000D+00  0.00000000D+00  0.00000000D+00  0.00000000D+00
  0.00000000D+00  0.00000000D+00  0.00000000D+00  0.00000000D+00  0.00000000D+00
  0.00000000D+00  0.00000000D+00  0.00000000D+00  0.00000000D+00  0.00000000D+00
  0.00000000D+00  0.00000000D+00  0.00000000D+00  0.00000000D+00  0.00000000D+00
  0.00000000D+00  0.00000000D+00  0.00000000D+00  0.00000000D+00  0.00000000D+00
  0.00000000D+00  0.00000000D+00  0.00000000D+00
MO    8     MO 0.0        OCC NO =    2.0000000  ORB. ENERGY =   -7.497139
  0.00000000D+00  0.00000000D+00  0.00000000D+00  0.00000000D+00  0.00000000D+00
  0.00000000D+00  0.00000000D+00  0.00000000D+00  0.00000000D+00  0.00000000D+00
  0.00000000D+00  0.00000000D+00  0.00000000D+00  0.00000000D+00 -0.30947666D+02
 -0.45259330D+02 -0.53441048D+02 -0.56745985D+02 -0.32713881D+02 -0.12635983D+02
  0.00000000D+00  0.00000000D+00  0.00000000D+00  0.00000000D+00  0.00000000D+00
  0.00000000D+00  0.00000000D+00  0.00000000D+00  0.00000000D+00  0.00000000D+00
  0.00000000D+00  0.00000000D+00  0.67388938D+01  0.43020159D+01  0.77569641D+00
  0.00000000D+00  0.00000000D+00  0.00000000D+00  0.00000000D+00  0.00000000D+00
  0.00000000D+00  0.99023187D-02  0.00000000D+00  0.00000000D+00 -0.39132890D-03
  0.00000000D+00  0.00000000D+00  0.00000000D+00  0.00000000D+00  0.00000000D+00
  0.00000000D+00  0.00000000D+00  0.00000000D+00  0.00000000D+00  0.00000000D+00
  0.00000000D+00  0.00000000D+00  0.00000000D+00  0.00000000D+00  0.00000000D+00
  0.00000000D+00  0.00000000D+00  0.00000000D+00  0.00000000D+00  0.00000000D+00
  0.00000000D+00  0.00000000D+00  0.00000000D+00  0.00000000D+00  0.00000000D+00
  0.00000000D+00  0.00000000D+00  0.00000000D+00  0.00000000D+00  0.00000000D+00
  0.00000000D+00  0.00000000D+00  0.00000000D+00  0.00000000D+00  0.00000000D+00
  0.00000000D+00  0.00000000D+00  0.00000000D+00
MO    9     MO 0.0        OCC NO =    2.0000000  ORB. ENERGY =   -7.497139
  0.00000000D+00  0.00000000D+00  0.00000000D+00  0.00000000D+00  0.00000000D+00
  0.00000000D+00  0.00000000D+00  0.00000000D+00  0.00000000D+00  0.00000000D+00
  0.00000000D+00  0.00000000D+00  0.00000000D+00  0.00000000D+00  0.00000000D+00
  0.00000000D+00  0.00000000D+00  0.00000000D+00  0.00000000D+00  0.00000000D+00
 -0.30947666D+02 -0.45259330D+02 -0.53441048D+02 -0.56745985D+02 -0.32713881D+02
 -0.12635983D+02  0.00000000D+00  0.00000000D+00  0.00000000D+00  0.00000000D+00
  0.00000000D+00  0.00000000D+00  0.00000000D+00  0.00000000D+00  0.00000000D+00
  0.67388938D+01  0.43020159D+01  0.77569641D+00  0.00000000D+00  0.00000000D+00
  0.00000000D+00  0.00000000D+00  0.99023187D-02  0.00000000D+00  0.00000000D+00
 -0.39132890D-03  0.00000000D+00  0.00000000D+00  0.00000000D+00  0.00000000D+00
  0.00000000D+00  0.00000000D+00  0.00000000D+00  0.00000000D+00  0.00000000D+00
  0.00000000D+00  0.00000000D+00  0.00000000D+00  0.00000000D+00  0.00000000D+00
  0.00000000D+00  0.00000000D+00  0.00000000D+00  0.00000000D+00  0.00000000D+00
  0.00000000D+00  0.00000000D+00  0.00000000D+00  0.00000000D+00  0.00000000D+00
  0.00000000D+00  0.00000000D+00  0.00000000D+00  0.00000000D+00  0.00000000D+00
  0.00000000D+00  0.00000000D+00  0.00000000D+00  0.00000000D+00  0.00000000D+00
  0.00000000D+00  0.00000000D+00  0.00000000D+00
MO   10     MO 0.0        OCC NO =    2.0000000  ORB. ENERGY =   -3.246167
 -0.13650030D-02 -0.25823037D-02 -0.44008565D-02 -0.69652732D-02 -0.96946918D-02
 -0.11285609D-01 -0.90778044D-02 -0.31340892D-02  0.92126655D-02  0.13177802D-01
 -0.11109061D-01 -0.44613052D-02  0.43982182D-03 -0.72476873D-06  0.00000000D+00
  0.00000000D+00  0.00000000D+00  0.00000000D+00  0.00000000D+00  0.00000000D+00
  0.00000000D+00  0.00000000D+00  0.00000000D+00  0.00000000D+00  0.00000000D+00
  0.00000000D+00  0.00000000D+00  0.00000000D+00  0.00000000D+00  0.00000000D+00
  0.00000000D+00  0.00000000D+00  0.00000000D+00  0.00000000D+00  0.00000000D+00
  0.00000000D+00  0.00000000D+00  0.00000000D+00  0.00000000D+00  0.00000000D+00
  0.00000000D+00  0.00000000D+00  0.00000000D+00  0.00000000D+00  0.00000000D+00
  0.00000000D+00  0.00000000D+00 -0.64251906D+02 -0.43932737D+02 -0.18907925D+02
 -0.42559829D+01 -0.35506264D+00 -0.64251906D+02 -0.43932737D+02 -0.18907925D+02
 -0.42559829D+01 -0.35506264D+00  0.12930761D+03  0.88415079D+02  0.38052391D+02
  0.85652088D+01  0.71456717D+00  0.00000000D+00  0.00000000D+00  0.00000000D+00
  0.00000000D+00  0.00000000D+00  0.00000000D+00  0.00000000D+00  0.00000000D+00
  0.00000000D+00  0.00000000D+00  0.00000000D+00  0.00000000D+00  0.00000000D+00
  0.00000000D+00  0.00000000D+00 -0.19163854D-02 -0.19163854D-02  0.31499152D-02
  0.00000000D+00  0.00000000D+00  0.00000000D+00
MO   11     MO 0.0        OCC NO =    2.0000000  ORB. ENERGY =   -3.241982
  0.00000000D+00  0.00000000D+00  0.00000000D+00  0.00000000D+00  0.00000000D+00
  0.00000000D+00  0.00000000D+00  0.00000000D+00  0.00000000D+00  0.00000000D+00
  0.00000000D+00  0.00000000D+00  0.00000000D+00  0.00000000D+00  0.00000000D+00
  0.00000000D+00  0.00000000D+00  0.00000000D+00  0.00000000D+00  0.00000000D+00
  0.00000000D+00  0.00000000D+00  0.00000000D+00  0.00000000D+00  0.00000000D+00
  0.00000000D+00  0.00000000D+00  0.00000000D+00  0.00000000D+00  0.00000000D+00
  0.00000000D+00  0.00000000D+00  0.00000000D+00  0.00000000D+00  0.00000000D+00
  0.00000000D+00  0.00000000D+00  0.00000000D+00  0.00000000D+00  0.00000000D+00
  0.00000000D+00  0.00000000D+00  0.00000000D+00  0.00000000D+00  0.00000000D+00
  0.00000000D+00  0.00000000D+00  0.00000000D+00  0.00000000D+00  0.00000000D+00
  0.00000000D+00  0.00000000D+00  0.00000000D+00  0.00000000D+00  0.00000000D+00
  0.00000000D+00  0.00000000D+00  0.00000000D+00  0.00000000D+00  0.00000000D+00
  0.00000000D+00  0.00000000D+00  0.00000000D+00  0.00000000D+00  0.00000000D+00
  0.00000000D+00  0.00000000D+00  0.22350050D+03  0.15282019D+03  0.65771289D+02
  0.14804453D+02  0.12350867D+01  0.00000000D+00  0.00000000D+00  0.00000000D+00
  0.00000000D+00  0.00000000D+00  0.00000000D+00  0.00000000D+00  0.00000000D+00
  0.00000000D+00  0.58822781D-02  0.00000000D+00
MO   12     MO 0.0        OCC NO =    2.0000000  ORB. ENERGY =   -3.241982
  0.00000000D+00  0.00000000D+00  0.00000000D+00  0.00000000D+00  0.00000000D+00
  0.00000000D+00  0.00000000D+00  0.00000000D+00  0.00000000D+00  0.00000000D+00
  0.00000000D+00  0.00000000D+00  0.00000000D+00  0.00000000D+00  0.00000000D+00
  0.00000000D+00  0.00000000D+00  0.00000000D+00  0.00000000D+00  0.00000000D+00
  0.00000000D+00  0.00000000D+00  0.00000000D+00  0.00000000D+00  0.00000000D+00
  0.00000000D+00  0.00000000D+00  0.00000000D+00  0.00000000D+00  0.00000000D+00
  0.00000000D+00  0.00000000D+00  0.00000000D+00  0.00000000D+00  0.00000000D+00
  0.00000000D+00  0.00000000D+00  0.00000000D+00  0.00000000D+00  0.00000000D+00
  0.00000000D+00  0.00000000D+00  0.00000000D+00  0.00000000D+00  0.00000000D+00
  0.00000000D+00  0.00000000D+00  0.00000000D+00  0.00000000D+00  0.00000000D+00
  0.00000000D+00  0.00000000D+00  0.00000000D+00  0.00000000D+00  0.00000000D+00
  0.00000000D+00  0.00000000D+00  0.00000000D+00  0.00000000D+00  0.00000000D+00
  0.00000000D+00  0.00000000D+00  0.00000000D+00  0.00000000D+00  0.00000000D+00
  0.00000000D+00  0.00000000D+00  0.00000000D+00  0.00000000D+00  0.00000000D+00
  0.00000000D+00  0.00000000D+00  0.22350050D+03  0.15282019D+03  0.65771289D+02
  0.14804453D+02  0.12350867D+01  0.00000000D+00  0.00000000D+00  0.00000000D+00
  0.00000000D+00  0.00000000D+00  0.58822781D-02
MO   13     MO 0.0        OCC NO =    2.0000000  ORB. ENERGY =   -3.229412
  0.32585692D-14  0.61645397D-14  0.10505834D-13  0.16627674D-13  0.23143410D-13
  0.26941287D-13  0.21670761D-13  0.74817758D-14 -0.79933149D-13 -0.11433642D-12
  0.19750697D-12 -0.34499407D-13  0.32655512D-13 -0.18686999D-14  0.00000000D+00
  0.00000000D+00  0.00000000D+00  0.00000000D+00  0.00000000D+00  0.00000000D+00
  0.00000000D+00  0.00000000D+00  0.00000000D+00  0.00000000D+00  0.00000000D+00
  0.00000000D+00  0.00000000D+00  0.00000000D+00  0.00000000D+00  0.00000000D+00
  0.00000000D+00  0.00000000D+00  0.00000000D+00  0.00000000D+00  0.00000000D+00
  0.00000000D+00  0.00000000D+00  0.00000000D+00  0.00000000D+00  0.00000000D+00
  0.00000000D+00  0.00000000D+00  0.00000000D+00  0.00000000D+00  0.00000000D+00
  0.00000000D+00  0.00000000D+00  0.11174500D+03  0.76406507D+02  0.32884100D+02
  0.74018786D+01  0.61751436D+00 -0.11174500D+03 -0.76406507D+02 -0.32884100D+02
 -0.74018786D+01 -0.61751436D+00 -0.16782474D-09 -0.11475146D-09 -0.49387135D-10
 -0.11116545D-10 -0.92741676D-12  0.00000000D+00  0.00000000D+00  0.00000000D+00
  0.00000000D+00  0.00000000D+00  0.00000000D+00  0.00000000D+00  0.00000000D+00
  0.00000000D+00  0.00000000D+00  0.00000000D+00  0.00000000D+00  0.00000000D+00
  0.00000000D+00  0.00000000D+00  0.29892933D-02 -0.29892933D-02 -0.79089708D-14
  0.00000000D+00  0.00000000D+00  0.00000000D+00
MO   14     MO 0.0        OCC NO =    2.0000000  ORB. ENERGY =   -3.229412
  0.00000000D+00  0.00000000D+00  0.00000000D+00  0.00000000D+00  0.00000000D+00
  0.00000000D+00  0.00000000D+00  0.00000000D+00  0.00000000D+00  0.00000000D+00
  0.00000000D+00  0.00000000D+00  0.00000000D+00  0.00000000D+00  0.00000000D+00
  0.00000000D+00  0.00000000D+00  0.00000000D+00  0.00000000D+00  0.00000000D+00
  0.00000000D+00  0.00000000D+00  0.00000000D+00  0.00000000D+00  0.00000000D+00
  0.00000000D+00  0.00000000D+00  0.00000000D+00  0.00000000D+00  0.00000000D+00
  0.00000000D+00  0.00000000D+00  0.00000000D+00  0.00000000D+00  0.00000000D+00
  0.00000000D+00  0.00000000D+00  0.00000000D+00  0.00000000D+00  0.00000000D+00
  0.00000000D+00  0.00000000D+00  0.00000000D+00  0.00000000D+00  0.00000000D+00
  0.00000000D+00  0.00000000D+00  0.00000000D+00  0.00000000D+00  0.00000000D+00
  0.00000000D+00  0.00000000D+00  0.00000000D+00  0.00000000D+00  0.00000000D+00
  0.00000000D+00  0.00000000D+00  0.00000000D+00  0.00000000D+00  0.00000000D+00
  0.00000000D+00  0.00000000D+00  0.22349000D+03  0.15281301D+03  0.65768199D+02
  0.14803757D+02  0.12350287D+01  0.00000000D+00  0.00000000D+00  0.00000000D+00
  0.00000000D+00  0.00000000D+00  0.00000000D+00  0.00000000D+00  0.00000000D+00
  0.00000000D+00  0.00000000D+00  0.00000000D+00  0.00000000D+00  0.00000000D+00
  0.59785865D-02  0.00000000D+00  0.00000000D+00
MO   15     MO 0.0        OCC NO =    2.0000000  ORB. ENERGY =   -0.961908
  0.16010398D+00  0.30288367D+00  0.51618544D+00  0.81697110D+00  0.11371102D+01
  0.13237121D+01  0.10647542D+01  0.36760371D+00 -0.96232842D+00 -0.13765151D+01
  0.85360780D+00  0.88495735D+00 -0.21803045D+00 -0.77548937D-01  0.00000000D+00
  0.00000000D+00  0.00000000D+00  0.00000000D+00  0.00000000D+00  0.00000000D+00
  0.00000000D+00  0.00000000D+00  0.00000000D+00  0.00000000D+00  0.00000000D+00
  0.00000000D+00  0.00000000D+00  0.00000000D+00  0.00000000D+00  0.00000000D+00
  0.00000000D+00  0.00000000D+00  0.00000000D+00  0.00000000D+00  0.00000000D+00
  0.00000000D+00  0.00000000D+00  0.00000000D+00  0.00000000D+00  0.00000000D+00
  0.00000000D+00  0.00000000D+00  0.00000000D+00  0.00000000D+00  0.00000000D+00
  0.00000000D+00  0.00000000D+00 -0.22244610D+02 -0.15209924D+02 -0.65461001D+01
 -0.14734610D+01 -0.12292600D+00 -0.22244610D+02 -0.15209924D+02 -0.65461001D+01
 -0.14734610D+01 -0.12292600D+00 -0.22392598D+02 -0.15311112D+02 -0.65896499D+01
 -0.14832636D+01 -0.12374380D+00  0.00000000D+00  0.00000000D+00  0.00000000D+00
  0.00000000D+00  0.00000000D+00  0.00000000D+00  0.00000000D+00  0.00000000D+00
  0.00000000D+00  0.00000000D+00  0.00000000D+00  0.00000000D+00  0.00000000D+00
  0.00000000D+00  0.00000000D+00 -0.14676458D-01 -0.14676458D-01 -0.13358841D-01
  0.00000000D+00  0.00000000D+00  0.00000000D+00
MO   16     MO 0.0        OCC NO =    1.6666667  ORB. ENERGY =   -0.434179
  0.00000000D+00  0.00000000D+00  0.00000000D+00  0.00000000D+00  0.00000000D+00
  0.00000000D+00  0.00000000D+00  0.00000000D+00  0.00000000D+00  0.00000000D+00
  0.00000000D+00  0.00000000D+00  0.00000000D+00  0.00000000D+00  0.77221365D+01
  0.11293217D+02  0.13334739D+02  0.14159395D+02  0.81628466D+01  0.31529610D+01
  0.00000000D+00  0.00000000D+00  0.00000000D+00  0.00000000D+00  0.00000000D+00
  0.00000000D+00  0.00000000D+00  0.00000000D+00  0.00000000D+00  0.00000000D+00
  0.00000000D+00  0.00000000D+00 -0.21248198D+01 -0.13564553D+01 -0.24458244D+00
  0.00000000D+00  0.00000000D+00  0.00000000D+00  0.00000000D+00  0.00000000D+00
  0.00000000D+00  0.33686649D+00  0.00000000D+00  0.00000000D+00  0.66205563D-01
  0.00000000D+00  0.00000000D+00  0.00000000D+00  0.00000000D+00  0.00000000D+00
  0.00000000D+00  0.00000000D+00  0.00000000D+00  0.00000000D+00  0.00000000D+00
  0.00000000D+00  0.00000000D+00  0.00000000D+00  0.00000000D+00  0.00000000D+00
  0.00000000D+00  0.00000000D+00  0.00000000D+00  0.00000000D+00  0.00000000D+00
  0.00000000D+00  0.00000000D+00  0.00000000D+00  0.00000000D+00  0.00000000D+00
  0.00000000D+00  0.00000000D+00  0.00000000D+00  0.00000000D+00  0.00000000D+00
  0.00000000D+00  0.00000000D+00  0.00000000D+00  0.00000000D+00  0.00000000D+00
  0.00000000D+00  0.00000000D+00  0.00000000D+00
MO   17     MO 0.0        OCC NO =    1.6666667  ORB. ENERGY =   -0.434179
  0.00000000D+00  0.00000000D+00  0.00000000D+00  0.00000000D+00  0.00000000D+00
  0.00000000D+00  0.00000000D+00  0.00000000D+00  0.00000000D+00  0.00000000D+00
  0.00000000D+00  0.00000000D+00  0.00000000D+00  0.00000000D+00  0.00000000D+00
  0.00000000D+00  0.00000000D+00  0.00000000D+00  0.00000000D+00  0.00000000D+00
  0.77221365D+01  0.11293217D+02  0.13334739D+02  0.14159395D+02  0.81628466D+01
  0.31529610D+01  0.00000000D+00  0.00000000D+00  0.00000000D+00  0.00000000D+00
  0.00000000D+00  0.00000000D+00  0.00000000D+00  0.00000000D+00  0.00000000D+00
 -0.21248198D+01 -0.13564553D+01 -0.24458244D+00  0.00000000D+00  0.00000000D+00
  0.00000000D+00  0.00000000D+00  0.33686649D+00  0.00000000D+00  0.00000000D+00
  0.66205563D-01  0.00000000D+00  0.00000000D+00  0.00000000D+00  0.00000000D+00
  0.00000000D+00  0.00000000D+00  0.00000000D+00  0.00000000D+00  0.00000000D+00
  0.00000000D+00  0.00000000D+00  0.00000000D+00  0.00000000D+00  0.00000000D+00
  0.00000000D+00  0.00000000D+00  0.00000000D+00  0.00000000D+00  0.00000000D+00
  0.00000000D+00  0.00000000D+00  0.00000000D+00  0.00000000D+00  0.00000000D+00
  0.00000000D+00  0.00000000D+00  0.00000000D+00  0.00000000D+00  0.00000000D+00
  0.00000000D+00  0.00000000D+00  0.00000000D+00  0.00000000D+00  0.00000000D+00
  0.00000000D+00  0.00000000D+00  0.00000000D+00
MO   18     MO 0.0        OCC NO =    1.6666667  ORB. ENERGY =   -0.181888
  0.00000000D+00  0.00000000D+00  0.00000000D+00  0.00000000D+00  0.00000000D+00
  0.00000000D+00  0.00000000D+00  0.00000000D+00  0.00000000D+00  0.00000000D+00
  0.00000000D+00  0.00000000D+00  0.00000000D+00  0.00000000D+00  0.00000000D+00
  0.00000000D+00  0.00000000D+00  0.00000000D+00  0.00000000D+00  0.00000000D+00
  0.00000000D+00  0.00000000D+00  0.00000000D+00  0.00000000D+00  0.00000000D+00
  0.00000000D+00  0.79536829D+01  0.11631842D+02  0.13734578D+02  0.14583961D+02
  0.84076076D+01  0.32475017D+01  0.00000000D+00  0.00000000D+00  0.00000000D+00
  0.00000000D+00  0.00000000D+00  0.00000000D+00 -0.21874911D+01 -0.13964638D+01
 -0.25179637D+00  0.00000000D+00  0.00000000D+00  0.35195853D+00  0.00000000D+00
  0.00000000D+00  0.62922422D-01  0.00000000D+00  0.00000000D+00  0.00000000D+00
  0.00000000D+00  0.00000000D+00  0.00000000D+00  0.00000000D+00  0.00000000D+00
  0.00000000D+00  0.00000000D+00  0.00000000D+00  0.00000000D+00  0.00000000D+00
  0.00000000D+00  0.00000000D+00  0.00000000D+00  0.00000000D+00  0.00000000D+00
  0.00000000D+00  0.00000000D+00  0.00000000D+00  0.00000000D+00  0.00000000D+00
  0.00000000D+00  0.00000000D+00  0.00000000D+00  0.00000000D+00  0.00000000D+00
  0.00000000D+00  0.00000000D+00  0.00000000D+00  0.00000000D+00  0.00000000D+00
  0.00000000D+00  0.00000000D+00  0.00000000D+00
END DATA
 THE  HF ENERGY =  -2569.862963235428 THE VIRIAL(-V/T)=   2.00446431
