 Generated by Multiwfn
GAUSSIAN             10 MOL ORBITALS     76 PRIMITIVES        1 NUCLEI
  Ca   1    (CENTRE  1)   0.00000000  0.00000000  0.00000000  CHARGE = 20.0
CENTRE ASSIGNMENTS    1  1  1  1  1  1  1  1  1  1  1  1  1  1  1  1  1  1  1  1
CENTRE ASSIGNMENTS    1  1  1  1  1  1  1  1  1  1  1  1  1  1  1  1  1  1  1  1
CENTRE ASSIGNMENTS    1  1  1  1  1  1  1  1  1  1  1  1  1  1  1  1  1  1  1  1
CENTRE ASSIGNMENTS    1  1  1  1  1  1  1  1  1  1  1  1  1  1  1  1
TYPE ASSIGNMENTS      1  1  1  1  1  1  1  1  1  1  1  1  2  2  2  2  2  2  3  3
TYPE ASSIGNMENTS      3  3  3  3  4  4  4  4  4  4  1  1  1  1  1  1  2  2  2  2
TYPE ASSIGNMENTS      2  2  3  3  3  3  3  3  4  4  4  4  4  4  1  1  1  2  2  2
TYPE ASSIGNMENTS      3  3  3  4  4  4  1  2  3  4  5  6  7  8  9 10
EXPONENTS  0.3526486D+05 0.5295503D+04 0.1206020D+04 0.3396839D+03 0.1086264D+03
EXPONENTS  0.3692103D+02 0.7063096D+03 0.1678187D+03 0.5382558D+02 0.2001638D+02
EXPONENTS  0.7970279D+01 0.3212059D+01 0.7063096D+03 0.1678187D+03 0.5382558D+02
EXPONENTS  0.2001638D+02 0.7970279D+01 0.3212059D+01 0.7063096D+03 0.1678187D+03
EXPONENTS  0.5382558D+02 0.2001638D+02 0.7970279D+01 0.3212059D+01 0.7063096D+03
EXPONENTS  0.1678187D+03 0.5382558D+02 0.2001638D+02 0.7970279D+01 0.3212059D+01
EXPONENTS  0.1419518D+02 0.4880828D+01 0.2160390D+01 0.9878990D+00 0.4495170D+00
EXPONENTS  0.1873870D+00 0.1419518D+02 0.4880828D+01 0.2160390D+01 0.9878990D+00
EXPONENTS  0.4495170D+00 0.1873870D+00 0.1419518D+02 0.4880828D+01 0.2160390D+01
EXPONENTS  0.9878990D+00 0.4495170D+00 0.1873870D+00 0.1419518D+02 0.4880828D+01
EXPONENTS  0.2160390D+01 0.9878990D+00 0.4495170D+00 0.1873870D+00 0.1032271D+01
EXPONENTS  0.3811710D+00 0.6513100D-01 0.1032271D+01 0.3811710D+00 0.6513100D-01
EXPONENTS  0.1032271D+01 0.3811710D+00 0.6513100D-01 0.1032271D+01 0.3811710D+00
EXPONENTS  0.6513100D-01 0.2601000D-01 0.2601000D-01 0.2601000D-01 0.2601000D-01
EXPONENTS  0.2160000D+00 0.2160000D+00 0.2160000D+00 0.2160000D+00 0.2160000D+00
EXPONENTS  0.2160000D+00
MO    1     MO 0.0        OCC NO =    2.0000000  ORB. ENERGY = -149.348800
  0.33145207D+01  0.61216772D+01  0.99362965D+01  0.13240747D+02  0.11520000D+02
  0.36485716D+01 -0.30432059D-02 -0.13712306D-01 -0.22107684D-01  0.37063921D-02
  0.26368556D-01  0.97685397D-02  0.00000000D+00  0.00000000D+00  0.00000000D+00
  0.00000000D+00  0.00000000D+00  0.00000000D+00  0.00000000D+00  0.00000000D+00
  0.00000000D+00  0.00000000D+00  0.00000000D+00  0.00000000D+00  0.00000000D+00
  0.00000000D+00  0.00000000D+00  0.00000000D+00  0.00000000D+00  0.00000000D+00
  0.16165895D-03  0.13977658D-02  0.11442497D-03 -0.11162219D-02 -0.60850350D-03
 -0.38717037D-04  0.00000000D+00  0.00000000D+00  0.00000000D+00  0.00000000D+00
  0.00000000D+00  0.00000000D+00  0.00000000D+00  0.00000000D+00  0.00000000D+00
  0.00000000D+00  0.00000000D+00  0.00000000D+00  0.00000000D+00  0.00000000D+00
  0.00000000D+00  0.00000000D+00  0.00000000D+00  0.00000000D+00  0.58352733D-04
  0.20449270D-03 -0.19243523D-03  0.00000000D+00  0.00000000D+00  0.00000000D+00
  0.00000000D+00  0.00000000D+00  0.00000000D+00  0.00000000D+00  0.00000000D+00
  0.00000000D+00  0.31450257D-04  0.00000000D+00  0.00000000D+00  0.00000000D+00
  0.10561246D-03  0.10561246D-03  0.10561246D-03  0.00000000D+00  0.00000000D+00
  0.00000000D+00
MO    2     MO 0.0        OCC NO =    2.0000000  ORB. ENERGY =  -16.822814
  0.96760789D+00  0.17871010D+01  0.29007026D+01  0.38653706D+01  0.33630330D+01
  0.10651274D+01  0.24718056D+00  0.11137648D+01  0.17956688D+01 -0.30104702D+00
 -0.21417527D+01 -0.79343731D+00  0.00000000D+00  0.00000000D+00  0.00000000D+00
  0.00000000D+00  0.00000000D+00  0.00000000D+00  0.00000000D+00  0.00000000D+00
  0.00000000D+00  0.00000000D+00  0.00000000D+00  0.00000000D+00  0.00000000D+00
  0.00000000D+00  0.00000000D+00  0.00000000D+00  0.00000000D+00  0.00000000D+00
  0.70514286D-03  0.60969377D-02  0.49911216D-03 -0.48688666D-02 -0.26542415D-02
 -0.16888048D-03  0.00000000D+00  0.00000000D+00  0.00000000D+00  0.00000000D+00
  0.00000000D+00  0.00000000D+00  0.00000000D+00  0.00000000D+00  0.00000000D+00
  0.00000000D+00  0.00000000D+00  0.00000000D+00  0.00000000D+00  0.00000000D+00
  0.00000000D+00  0.00000000D+00  0.00000000D+00  0.00000000D+00  0.87928483D-04
  0.30813866D-03 -0.28996993D-03  0.00000000D+00  0.00000000D+00  0.00000000D+00
  0.00000000D+00  0.00000000D+00  0.00000000D+00  0.00000000D+00  0.00000000D+00
  0.00000000D+00  0.42484461D-04  0.00000000D+00  0.00000000D+00  0.00000000D+00
  0.18860049D-03  0.18860049D-03  0.18860049D-03  0.00000000D+00  0.00000000D+00
  0.00000000D+00
MO    3     MO 0.0        OCC NO =    2.0000000  ORB. ENERGY =  -13.629808
  0.00000000D+00  0.00000000D+00  0.00000000D+00  0.00000000D+00  0.00000000D+00
  0.00000000D+00  0.00000000D+00  0.00000000D+00  0.00000000D+00  0.00000000D+00
  0.00000000D+00  0.00000000D+00  0.00000000D+00  0.00000000D+00  0.00000000D+00
  0.00000000D+00  0.00000000D+00  0.00000000D+00  0.00000000D+00  0.00000000D+00
  0.00000000D+00  0.00000000D+00  0.00000000D+00  0.00000000D+00  0.20805940D+02
  0.26617892D+02  0.27709919D+02  0.20266518D+02  0.88149604D+01  0.13797190D+01
  0.00000000D+00  0.00000000D+00  0.00000000D+00  0.00000000D+00  0.00000000D+00
  0.00000000D+00  0.00000000D+00  0.00000000D+00  0.00000000D+00  0.00000000D+00
  0.00000000D+00  0.00000000D+00  0.00000000D+00  0.00000000D+00  0.00000000D+00
  0.00000000D+00  0.00000000D+00  0.00000000D+00 -0.41169994D-02 -0.86172205D-03
  0.59472380D-02  0.49729467D-02  0.17043148D-02  0.13875503D-03  0.00000000D+00
  0.00000000D+00  0.00000000D+00  0.00000000D+00  0.00000000D+00  0.00000000D+00
  0.00000000D+00  0.00000000D+00  0.00000000D+00  0.15095080D-02 -0.70107146D-05
 -0.10777948D-03  0.00000000D+00  0.00000000D+00  0.00000000D+00  0.18614290D-04
  0.00000000D+00  0.00000000D+00  0.00000000D+00  0.00000000D+00  0.00000000D+00
  0.00000000D+00
MO    4     MO 0.0        OCC NO =    2.0000000  ORB. ENERGY =  -13.629808
  0.00000000D+00  0.00000000D+00  0.00000000D+00  0.00000000D+00  0.00000000D+00
  0.00000000D+00  0.00000000D+00  0.00000000D+00  0.00000000D+00  0.00000000D+00
  0.00000000D+00  0.00000000D+00  0.20805940D+02  0.26617892D+02  0.27709919D+02
  0.20266518D+02  0.88149604D+01  0.13797190D+01  0.00000000D+00  0.00000000D+00
  0.00000000D+00  0.00000000D+00  0.00000000D+00  0.00000000D+00  0.00000000D+00
  0.00000000D+00  0.00000000D+00  0.00000000D+00  0.00000000D+00  0.00000000D+00
  0.00000000D+00  0.00000000D+00  0.00000000D+00  0.00000000D+00  0.00000000D+00
  0.00000000D+00 -0.41169994D-02 -0.86172205D-03  0.59472380D-02  0.49729467D-02
  0.17043148D-02  0.13875503D-03  0.00000000D+00  0.00000000D+00  0.00000000D+00
  0.00000000D+00  0.00000000D+00  0.00000000D+00  0.00000000D+00  0.00000000D+00
  0.00000000D+00  0.00000000D+00  0.00000000D+00  0.00000000D+00  0.00000000D+00
  0.00000000D+00  0.00000000D+00  0.15095080D-02 -0.70107146D-05 -0.10777948D-03
  0.00000000D+00  0.00000000D+00  0.00000000D+00  0.00000000D+00  0.00000000D+00
  0.00000000D+00  0.00000000D+00  0.18614290D-04  0.00000000D+00  0.00000000D+00
  0.00000000D+00  0.00000000D+00  0.00000000D+00  0.00000000D+00  0.00000000D+00
  0.00000000D+00
MO    5     MO 0.0        OCC NO =    2.0000000  ORB. ENERGY =  -13.629808
  0.00000000D+00  0.00000000D+00  0.00000000D+00  0.00000000D+00  0.00000000D+00
  0.00000000D+00  0.00000000D+00  0.00000000D+00  0.00000000D+00  0.00000000D+00
  0.00000000D+00  0.00000000D+00  0.00000000D+00  0.00000000D+00  0.00000000D+00
  0.00000000D+00  0.00000000D+00  0.00000000D+00  0.20805940D+02  0.26617892D+02
  0.27709919D+02  0.20266518D+02  0.88149604D+01  0.13797190D+01  0.00000000D+00
  0.00000000D+00  0.00000000D+00  0.00000000D+00  0.00000000D+00  0.00000000D+00
  0.00000000D+00  0.00000000D+00  0.00000000D+00  0.00000000D+00  0.00000000D+00
  0.00000000D+00  0.00000000D+00  0.00000000D+00  0.00000000D+00  0.00000000D+00
  0.00000000D+00  0.00000000D+00 -0.41169994D-02 -0.86172205D-03  0.59472380D-02
  0.49729467D-02  0.17043148D-02  0.13875503D-03  0.00000000D+00  0.00000000D+00
  0.00000000D+00  0.00000000D+00  0.00000000D+00  0.00000000D+00  0.00000000D+00
  0.00000000D+00  0.00000000D+00  0.00000000D+00  0.00000000D+00  0.00000000D+00
  0.15095080D-02 -0.70107146D-05 -0.10777948D-03  0.00000000D+00  0.00000000D+00
  0.00000000D+00  0.00000000D+00  0.00000000D+00  0.18614290D-04  0.00000000D+00
  0.00000000D+00  0.00000000D+00  0.00000000D+00  0.00000000D+00  0.00000000D+00
  0.00000000D+00
MO    6     MO 0.0        OCC NO =    2.0000000  ORB. ENERGY =   -2.245236
 -0.33100339D+00 -0.61133903D+00 -0.99228458D+00 -0.13222823D+01 -0.11504405D+01
 -0.36436325D+00 -0.10068489D+00 -0.45367354D+00 -0.73143578D+00  0.12262649D+00
  0.87240730D+00  0.32319348D+00  0.00000000D+00  0.00000000D+00  0.00000000D+00
  0.00000000D+00  0.00000000D+00  0.00000000D+00  0.00000000D+00  0.00000000D+00
  0.00000000D+00  0.00000000D+00  0.00000000D+00  0.00000000D+00  0.00000000D+00
  0.00000000D+00  0.00000000D+00  0.00000000D+00  0.00000000D+00  0.00000000D+00
  0.60796676D-01  0.52567156D+00  0.43032926D-01 -0.41978856D+00 -0.22884591D+00
 -0.14560698D-01  0.00000000D+00  0.00000000D+00  0.00000000D+00  0.00000000D+00
  0.00000000D+00  0.00000000D+00  0.00000000D+00  0.00000000D+00  0.00000000D+00
  0.00000000D+00  0.00000000D+00  0.00000000D+00  0.00000000D+00  0.00000000D+00
  0.00000000D+00  0.00000000D+00  0.00000000D+00  0.00000000D+00 -0.95918123D-04
 -0.33613774D-03  0.31631811D-03  0.00000000D+00  0.00000000D+00  0.00000000D+00
  0.00000000D+00  0.00000000D+00  0.00000000D+00  0.00000000D+00  0.00000000D+00
  0.00000000D+00 -0.39720204D-04  0.00000000D+00  0.00000000D+00  0.00000000D+00
 -0.19239433D-04 -0.19239433D-04 -0.19239433D-04  0.00000000D+00  0.00000000D+00
  0.00000000D+00
MO    7     MO 0.0        OCC NO =    2.0000000  ORB. ENERGY =   -1.340587
  0.00000000D+00  0.00000000D+00  0.00000000D+00  0.00000000D+00  0.00000000D+00
  0.00000000D+00  0.00000000D+00  0.00000000D+00  0.00000000D+00  0.00000000D+00
  0.00000000D+00  0.00000000D+00 -0.70540927D+01 -0.90245898D+01 -0.93948331D+01
 -0.68712058D+01 -0.29886440D+01 -0.46778302D+00  0.00000000D+00  0.00000000D+00
  0.00000000D+00  0.00000000D+00  0.00000000D+00  0.00000000D+00  0.00000000D+00
  0.00000000D+00  0.00000000D+00  0.00000000D+00  0.00000000D+00  0.00000000D+00
  0.00000000D+00  0.00000000D+00  0.00000000D+00  0.00000000D+00  0.00000000D+00
  0.00000000D+00 -0.53323440D+00 -0.11161037D+00  0.77028718D+00  0.64409683D+00
  0.22074312D+00  0.17971572D-01  0.00000000D+00  0.00000000D+00  0.00000000D+00
  0.00000000D+00  0.00000000D+00  0.00000000D+00  0.00000000D+00  0.00000000D+00
  0.00000000D+00  0.00000000D+00  0.00000000D+00  0.00000000D+00  0.00000000D+00
  0.00000000D+00  0.00000000D+00  0.25770704D-03 -0.11968870D-05 -0.18400386D-04
  0.00000000D+00  0.00000000D+00  0.00000000D+00  0.00000000D+00  0.00000000D+00
  0.00000000D+00  0.00000000D+00  0.22210289D-04  0.00000000D+00  0.00000000D+00
  0.00000000D+00  0.00000000D+00  0.00000000D+00  0.00000000D+00  0.00000000D+00
  0.00000000D+00
MO    8     MO 0.0        OCC NO =    2.0000000  ORB. ENERGY =   -1.340587
  0.00000000D+00  0.00000000D+00  0.00000000D+00  0.00000000D+00  0.00000000D+00
  0.00000000D+00  0.00000000D+00  0.00000000D+00  0.00000000D+00  0.00000000D+00
  0.00000000D+00  0.00000000D+00  0.00000000D+00  0.00000000D+00  0.00000000D+00
  0.00000000D+00  0.00000000D+00  0.00000000D+00  0.00000000D+00  0.00000000D+00
  0.00000000D+00  0.00000000D+00  0.00000000D+00  0.00000000D+00 -0.70540927D+01
 -0.90245898D+01 -0.93948331D+01 -0.68712058D+01 -0.29886440D+01 -0.46778302D+00
  0.00000000D+00  0.00000000D+00  0.00000000D+00  0.00000000D+00  0.00000000D+00
  0.00000000D+00  0.00000000D+00  0.00000000D+00  0.00000000D+00  0.00000000D+00
  0.00000000D+00  0.00000000D+00  0.00000000D+00  0.00000000D+00  0.00000000D+00
  0.00000000D+00  0.00000000D+00  0.00000000D+00 -0.53323440D+00 -0.11161037D+00
  0.77028718D+00  0.64409683D+00  0.22074312D+00  0.17971572D-01  0.00000000D+00
  0.00000000D+00  0.00000000D+00  0.00000000D+00  0.00000000D+00  0.00000000D+00
  0.00000000D+00  0.00000000D+00  0.00000000D+00  0.25770704D-03 -0.11968870D-05
 -0.18400386D-04  0.00000000D+00  0.00000000D+00  0.00000000D+00  0.22210289D-04
  0.00000000D+00  0.00000000D+00  0.00000000D+00  0.00000000D+00  0.00000000D+00
  0.00000000D+00
MO    9     MO 0.0        OCC NO =    2.0000000  ORB. ENERGY =   -1.340587
  0.00000000D+00  0.00000000D+00  0.00000000D+00  0.00000000D+00  0.00000000D+00
  0.00000000D+00  0.00000000D+00  0.00000000D+00  0.00000000D+00  0.00000000D+00
  0.00000000D+00  0.00000000D+00  0.00000000D+00  0.00000000D+00  0.00000000D+00
  0.00000000D+00  0.00000000D+00  0.00000000D+00 -0.70540927D+01 -0.90245898D+01
 -0.93948331D+01 -0.68712058D+01 -0.29886440D+01 -0.46778302D+00  0.00000000D+00
  0.00000000D+00  0.00000000D+00  0.00000000D+00  0.00000000D+00  0.00000000D+00
  0.00000000D+00  0.00000000D+00  0.00000000D+00  0.00000000D+00  0.00000000D+00
  0.00000000D+00  0.00000000D+00  0.00000000D+00  0.00000000D+00  0.00000000D+00
  0.00000000D+00  0.00000000D+00 -0.53323440D+00 -0.11161037D+00  0.77028718D+00
  0.64409683D+00  0.22074312D+00  0.17971572D-01  0.00000000D+00  0.00000000D+00
  0.00000000D+00  0.00000000D+00  0.00000000D+00  0.00000000D+00  0.00000000D+00
  0.00000000D+00  0.00000000D+00  0.00000000D+00  0.00000000D+00  0.00000000D+00
  0.25770704D-03 -0.11968870D-05 -0.18400386D-04  0.00000000D+00  0.00000000D+00
  0.00000000D+00  0.00000000D+00  0.00000000D+00  0.22210289D-04  0.00000000D+00
  0.00000000D+00  0.00000000D+00  0.00000000D+00  0.00000000D+00  0.00000000D+00
  0.00000000D+00
MO   10     MO 0.0        OCC NO =    2.0000000  ORB. ENERGY =   -0.195509
 -0.78992478D-01 -0.14589333D+00 -0.23680428D+00 -0.31555675D+00 -0.27454748D+00
 -0.86953661D-01 -0.24593683D-01 -0.11081607D+00 -0.17866336D+00  0.29953225D-01
  0.21309761D+00  0.78944500D-01  0.00000000D+00  0.00000000D+00  0.00000000D+00
  0.00000000D+00  0.00000000D+00  0.00000000D+00  0.00000000D+00  0.00000000D+00
  0.00000000D+00  0.00000000D+00  0.00000000D+00  0.00000000D+00  0.00000000D+00
  0.00000000D+00  0.00000000D+00  0.00000000D+00  0.00000000D+00  0.00000000D+00
  0.17364630D-01  0.15014130D+00  0.12290981D-01 -0.11989920D+00 -0.65362529D-01
 -0.41587985D-02  0.00000000D+00  0.00000000D+00  0.00000000D+00  0.00000000D+00
  0.00000000D+00  0.00000000D+00  0.00000000D+00  0.00000000D+00  0.00000000D+00
  0.00000000D+00  0.00000000D+00  0.00000000D+00  0.00000000D+00  0.00000000D+00
  0.00000000D+00  0.00000000D+00  0.00000000D+00  0.00000000D+00 -0.18850936D-01
 -0.66061667D-01  0.62166483D-01  0.00000000D+00  0.00000000D+00  0.00000000D+00
  0.00000000D+00  0.00000000D+00  0.00000000D+00  0.00000000D+00  0.00000000D+00
  0.00000000D+00  0.22728618D-01  0.00000000D+00  0.00000000D+00  0.00000000D+00
 -0.34974702D-04 -0.34974702D-04 -0.34974702D-04  0.00000000D+00  0.00000000D+00
  0.00000000D+00
END DATA
 THE  HF ENERGY =   -676.708085116271 THE VIRIAL(-V/T)=   2.00015603
