 Generated by Multiwfn
GAUSSIAN              9 MOL ORBITALS     52 PRIMITIVES        1 NUCLEI
  Cl   1    (CENTRE  1)   0.00000000  0.00000000  0.00000000  CHARGE = 17.0
CENTRE ASSIGNMENTS    1  1  1  1  1  1  1  1  1  1  1  1  1  1  1  1  1  1  1  1
CENTRE ASSIGNMENTS    1  1  1  1  1  1  1  1  1  1  1  1  1  1  1  1  1  1  1  1
CENTRE ASSIGNMENTS    1  1  1  1  1  1  1  1  1  1  1  1
TYPE ASSIGNMENTS      1  1  1  1  1  1  1  1  1  1  1  1  2  2  2  2  2  2  3  3
TYPE ASSIGNMENTS      3  3  3  3  4  4  4  4  4  4  1  1  1  2  2  2  3  3  3  4
TYPE ASSIGNMENTS      4  4  1  2  3  4  5  6  7  8  9 10
EXPONENTS  0.2518010D+05 0.3780350D+04 0.8604740D+03 0.2421450D+03 0.7733490D+02
EXPONENTS  0.2624700D+02 0.4917650D+03 0.1169840D+03 0.3741530D+02 0.1378340D+02
EXPONENTS  0.5452150D+01 0.2225880D+01 0.4917650D+03 0.1169840D+03 0.3741530D+02
EXPONENTS  0.1378340D+02 0.5452150D+01 0.2225880D+01 0.4917650D+03 0.1169840D+03
EXPONENTS  0.3741530D+02 0.1378340D+02 0.5452150D+01 0.2225880D+01 0.4917650D+03
EXPONENTS  0.1169840D+03 0.3741530D+02 0.1378340D+02 0.5452150D+01 0.2225880D+01
EXPONENTS  0.3186490D+01 0.1144270D+01 0.4203770D+00 0.3186490D+01 0.1144270D+01
EXPONENTS  0.4203770D+00 0.3186490D+01 0.1144270D+01 0.4203770D+00 0.3186490D+01
EXPONENTS  0.1144270D+01 0.4203770D+00 0.1426570D+00 0.1426570D+00 0.1426570D+00
EXPONENTS  0.1426570D+00 0.7500000D+00 0.7500000D+00 0.7500000D+00 0.7500000D+00
EXPONENTS  0.7500000D+00 0.7500000D+00
MO    1     MO 0.0        OCC NO =    2.0000000  ORB. ENERGY = -104.871471
  0.26011764D+01  0.48035287D+01  0.77936113D+01  0.10347994D+02  0.89429967D+01
  0.27978757D+01 -0.25002493D-02 -0.11385638D-01 -0.17740992D-01  0.33559651D-02
  0.21914508D-01  0.88349072D-02  0.00000000D+00  0.00000000D+00  0.00000000D+00
  0.00000000D+00  0.00000000D+00  0.00000000D+00  0.00000000D+00  0.00000000D+00
  0.00000000D+00  0.00000000D+00  0.00000000D+00  0.00000000D+00  0.00000000D+00
  0.00000000D+00  0.00000000D+00  0.00000000D+00  0.00000000D+00  0.00000000D+00
  0.75682203D-02 -0.85863105D-03 -0.69745448D-02  0.00000000D+00  0.00000000D+00
  0.00000000D+00  0.00000000D+00  0.00000000D+00  0.00000000D+00  0.00000000D+00
  0.00000000D+00  0.00000000D+00  0.23377701D-03  0.00000000D+00  0.00000000D+00
  0.00000000D+00  0.62295755D-02  0.62295755D-02  0.62438338D-02  0.00000000D+00
  0.00000000D+00  0.00000000D+00
MO    2     MO 0.0        OCC NO =    2.0000000  ORB. ENERGY =  -10.601964
 -0.74890843D+00 -0.13829909D+01 -0.22438699D+01 -0.29793060D+01 -0.25747911D+01
 -0.80554043D+00 -0.17625663D+00 -0.80263764D+00 -0.12506623D+01  0.23658086D+00
  0.15448769D+01  0.62282230D+00  0.00000000D+00  0.00000000D+00  0.00000000D+00
  0.00000000D+00  0.00000000D+00  0.00000000D+00  0.00000000D+00  0.00000000D+00
  0.00000000D+00  0.00000000D+00  0.00000000D+00  0.00000000D+00  0.00000000D+00
  0.00000000D+00  0.00000000D+00  0.00000000D+00  0.00000000D+00  0.00000000D+00
 -0.10694822D-01  0.12133508D-02  0.98558856D-02  0.00000000D+00  0.00000000D+00
  0.00000000D+00  0.00000000D+00  0.00000000D+00  0.00000000D+00  0.00000000D+00
  0.00000000D+00  0.00000000D+00 -0.91348307D-03  0.00000000D+00  0.00000000D+00
  0.00000000D+00 -0.16983905D-02 -0.16983905D-02 -0.13088393D-02  0.00000000D+00
  0.00000000D+00  0.00000000D+00
MO    3     MO 0.0        OCC NO =    2.0000000  ORB. ENERGY =   -8.067484
  0.00000000D+00  0.00000000D+00  0.00000000D+00  0.00000000D+00  0.00000000D+00
  0.00000000D+00  0.00000000D+00  0.00000000D+00  0.00000000D+00  0.00000000D+00
  0.00000000D+00  0.00000000D+00  0.13086365D+02  0.16522233D+02  0.17024260D+02
  0.12337263D+02  0.53521381D+01  0.97108548D+00  0.00000000D+00  0.00000000D+00
  0.00000000D+00  0.00000000D+00  0.00000000D+00  0.00000000D+00  0.00000000D+00
  0.00000000D+00  0.00000000D+00  0.00000000D+00  0.00000000D+00  0.00000000D+00
  0.00000000D+00  0.00000000D+00  0.00000000D+00 -0.17152469D-02  0.10789535D-01
  0.70909578D-02  0.00000000D+00  0.00000000D+00  0.00000000D+00  0.00000000D+00
  0.00000000D+00  0.00000000D+00  0.00000000D+00 -0.54031443D-03  0.00000000D+00
  0.00000000D+00  0.00000000D+00  0.00000000D+00  0.00000000D+00  0.00000000D+00
  0.00000000D+00  0.00000000D+00
MO    4     MO 0.0        OCC NO =    2.0000000  ORB. ENERGY =   -8.067484
  0.00000000D+00  0.00000000D+00  0.00000000D+00  0.00000000D+00  0.00000000D+00
  0.00000000D+00  0.00000000D+00  0.00000000D+00  0.00000000D+00  0.00000000D+00
  0.00000000D+00  0.00000000D+00  0.00000000D+00  0.00000000D+00  0.00000000D+00
  0.00000000D+00  0.00000000D+00  0.00000000D+00  0.13086365D+02  0.16522233D+02
  0.17024260D+02  0.12337263D+02  0.53521381D+01  0.97108548D+00  0.00000000D+00
  0.00000000D+00  0.00000000D+00  0.00000000D+00  0.00000000D+00  0.00000000D+00
  0.00000000D+00  0.00000000D+00  0.00000000D+00  0.00000000D+00  0.00000000D+00
  0.00000000D+00 -0.17152469D-02  0.10789535D-01  0.70909578D-02  0.00000000D+00
  0.00000000D+00  0.00000000D+00  0.00000000D+00  0.00000000D+00 -0.54031443D-03
  0.00000000D+00  0.00000000D+00  0.00000000D+00  0.00000000D+00  0.00000000D+00
  0.00000000D+00  0.00000000D+00
MO    5     MO 0.0        OCC NO =    2.0000000  ORB. ENERGY =   -8.064921
  0.00000000D+00  0.00000000D+00  0.00000000D+00  0.00000000D+00  0.00000000D+00
  0.00000000D+00  0.00000000D+00  0.00000000D+00  0.00000000D+00  0.00000000D+00
  0.00000000D+00  0.00000000D+00  0.00000000D+00  0.00000000D+00  0.00000000D+00
  0.00000000D+00  0.00000000D+00  0.00000000D+00  0.00000000D+00  0.00000000D+00
  0.00000000D+00  0.00000000D+00  0.00000000D+00  0.00000000D+00  0.13073130D+02
  0.16505524D+02  0.17007042D+02  0.12324786D+02  0.53467252D+01  0.97010337D+00
  0.00000000D+00  0.00000000D+00  0.00000000D+00  0.00000000D+00  0.00000000D+00
  0.00000000D+00  0.00000000D+00  0.00000000D+00  0.00000000D+00 -0.19859673D-02
  0.12492467D-01  0.82101363D-02  0.00000000D+00  0.00000000D+00  0.00000000D+00
 -0.63605847D-03  0.00000000D+00  0.00000000D+00  0.00000000D+00  0.00000000D+00
  0.00000000D+00  0.00000000D+00
MO    6     MO 0.0        OCC NO =    2.0000000  ORB. ENERGY =   -1.051246
  0.21756868D+00  0.40177875D+00  0.65187648D+00  0.86553125D+00  0.74801385D+00
  0.23402108D+00  0.64807362D-01  0.29511983D+00  0.45985290D+00 -0.86987825D-01
 -0.56803194D+00 -0.22900398D+00  0.00000000D+00  0.00000000D+00  0.00000000D+00
  0.00000000D+00  0.00000000D+00  0.00000000D+00  0.00000000D+00  0.00000000D+00
  0.00000000D+00  0.00000000D+00  0.00000000D+00  0.00000000D+00  0.00000000D+00
  0.00000000D+00  0.00000000D+00  0.00000000D+00  0.00000000D+00  0.00000000D+00
 -0.32859617D+00  0.37279951D-01  0.30282004D+00  0.00000000D+00  0.00000000D+00
  0.00000000D+00  0.00000000D+00  0.00000000D+00  0.00000000D+00  0.00000000D+00
  0.00000000D+00  0.00000000D+00  0.55132660D-01  0.00000000D+00  0.00000000D+00
  0.00000000D+00  0.75211718D-03  0.75211718D-03 -0.14728320D-02  0.00000000D+00
  0.00000000D+00  0.00000000D+00
MO    7     MO 0.0        OCC NO =    1.6666667  ORB. ENERGY =   -0.484484
  0.00000000D+00  0.00000000D+00  0.00000000D+00  0.00000000D+00  0.00000000D+00
  0.00000000D+00  0.00000000D+00  0.00000000D+00  0.00000000D+00  0.00000000D+00
  0.00000000D+00  0.00000000D+00 -0.37322939D+01 -0.47122201D+01 -0.48554004D+01
 -0.35186465D+01 -0.15264554D+01 -0.27695823D+00  0.00000000D+00  0.00000000D+00
  0.00000000D+00  0.00000000D+00  0.00000000D+00  0.00000000D+00  0.00000000D+00
  0.00000000D+00  0.00000000D+00  0.00000000D+00  0.00000000D+00  0.00000000D+00
  0.00000000D+00  0.00000000D+00  0.00000000D+00 -0.64241503D-01  0.40410274D+00
  0.26557914D+00  0.00000000D+00  0.00000000D+00  0.00000000D+00  0.00000000D+00
  0.00000000D+00  0.00000000D+00  0.00000000D+00  0.49585841D-01  0.00000000D+00
  0.00000000D+00  0.00000000D+00  0.00000000D+00  0.00000000D+00  0.00000000D+00
  0.00000000D+00  0.00000000D+00
MO    8     MO 0.0        OCC NO =    1.6666667  ORB. ENERGY =   -0.484484
  0.00000000D+00  0.00000000D+00  0.00000000D+00  0.00000000D+00  0.00000000D+00
  0.00000000D+00  0.00000000D+00  0.00000000D+00  0.00000000D+00  0.00000000D+00
  0.00000000D+00  0.00000000D+00  0.00000000D+00  0.00000000D+00  0.00000000D+00
  0.00000000D+00  0.00000000D+00  0.00000000D+00 -0.37322939D+01 -0.47122201D+01
 -0.48554004D+01 -0.35186465D+01 -0.15264554D+01 -0.27695823D+00  0.00000000D+00
  0.00000000D+00  0.00000000D+00  0.00000000D+00  0.00000000D+00  0.00000000D+00
  0.00000000D+00  0.00000000D+00  0.00000000D+00  0.00000000D+00  0.00000000D+00
  0.00000000D+00 -0.64241503D-01  0.40410274D+00  0.26557914D+00  0.00000000D+00
  0.00000000D+00  0.00000000D+00  0.00000000D+00  0.00000000D+00  0.49585841D-01
  0.00000000D+00  0.00000000D+00  0.00000000D+00  0.00000000D+00  0.00000000D+00
  0.00000000D+00  0.00000000D+00
MO    9     MO 0.0        OCC NO =    1.6666667  ORB. ENERGY =   -0.197839
  0.00000000D+00  0.00000000D+00  0.00000000D+00  0.00000000D+00  0.00000000D+00
  0.00000000D+00  0.00000000D+00  0.00000000D+00  0.00000000D+00  0.00000000D+00
  0.00000000D+00  0.00000000D+00  0.00000000D+00  0.00000000D+00  0.00000000D+00
  0.00000000D+00  0.00000000D+00  0.00000000D+00  0.00000000D+00  0.00000000D+00
  0.00000000D+00  0.00000000D+00  0.00000000D+00  0.00000000D+00 -0.38592161D+01
 -0.48724662D+01 -0.50205156D+01 -0.36383034D+01 -0.15783648D+01 -0.28637661D+00
  0.00000000D+00  0.00000000D+00  0.00000000D+00  0.00000000D+00  0.00000000D+00
  0.00000000D+00  0.00000000D+00  0.00000000D+00  0.00000000D+00 -0.66776130D-01
  0.42004647D+00  0.27605748D+00  0.00000000D+00  0.00000000D+00  0.00000000D+00
  0.45617998D-01  0.00000000D+00  0.00000000D+00  0.00000000D+00  0.00000000D+00
  0.00000000D+00  0.00000000D+00
END DATA
 THE  HF ENERGY =   -459.444219424236 THE VIRIAL(-V/T)=   2.00051426
