 Generated by Multiwfn
GAUSSIAN              5 MOL ORBITALS     28 PRIMITIVES        1 NUCLEI
  F    1    (CENTRE  1)   0.00000000  0.00000000  0.00000000  CHARGE =  9.0
CENTRE ASSIGNMENTS    1  1  1  1  1  1  1  1  1  1  1  1  1  1  1  1  1  1  1  1
CENTRE ASSIGNMENTS    1  1  1  1  1  1  1  1
TYPE ASSIGNMENTS      1  1  1  1  1  1  1  1  1  2  2  2  3  3  3  4  4  4  1  2
TYPE ASSIGNMENTS      3  4  5  6  7  8  9 10
EXPONENTS  0.7001713D+04 0.1051366D+04 0.2392857D+03 0.6739745D+02 0.2151996D+02
EXPONENTS  0.7403101D+01 0.2084795D+02 0.4808308D+01 0.1344070D+01 0.2084795D+02
EXPONENTS  0.4808308D+01 0.1344070D+01 0.2084795D+02 0.4808308D+01 0.1344070D+01
EXPONENTS  0.2084795D+02 0.4808308D+01 0.1344070D+01 0.3581514D+00 0.3581514D+00
EXPONENTS  0.3581514D+00 0.3581514D+00 0.8000000D+00 0.8000000D+00 0.8000000D+00
EXPONENTS  0.8000000D+00 0.8000000D+00 0.8000000D+00
MO    1     MO 0.0        OCC NO =    2.0000000  ORB. ENERGY =  -26.370148
  0.98725735D+00  0.18212919D+01  0.29500178D+01  0.38880495D+01  0.33376875D+01
  0.11345180D+01 -0.13091006D-01 -0.58803929D-02  0.17422414D-01  0.00000000D+00
  0.00000000D+00  0.00000000D+00  0.00000000D+00  0.00000000D+00  0.00000000D+00
  0.00000000D+00  0.00000000D+00  0.00000000D+00  0.26255927D-02  0.00000000D+00
  0.00000000D+00  0.00000000D+00 -0.49970971D-02 -0.54277009D-02 -0.49970971D-02
  0.00000000D+00  0.00000000D+00  0.00000000D+00
MO    2     MO 0.0        OCC NO =    2.0000000  ORB. ENERGY =   -1.527509
 -0.23389137D+00 -0.43148269D+00 -0.69888940D+00 -0.92111870D+00 -0.79073231D+00
 -0.26877891D+00 -0.42530698D+00 -0.19104506D+00  0.56602785D+00  0.00000000D+00
  0.00000000D+00  0.00000000D+00  0.00000000D+00  0.00000000D+00  0.00000000D+00
  0.00000000D+00  0.00000000D+00  0.00000000D+00  0.15709512D+00  0.00000000D+00
  0.00000000D+00  0.00000000D+00  0.30082152D-01  0.25938754D-01  0.30082152D-01
  0.00000000D+00  0.00000000D+00  0.00000000D+00
MO    3     MO 0.0        OCC NO =    1.6666667  ORB. ENERGY =   -0.681651
  0.00000000D+00  0.00000000D+00  0.00000000D+00  0.00000000D+00  0.00000000D+00
  0.00000000D+00  0.00000000D+00  0.00000000D+00  0.00000000D+00  0.00000000D+00
  0.00000000D+00  0.00000000D+00  0.00000000D+00  0.00000000D+00  0.00000000D+00
  0.31009711D+01  0.23935218D+01  0.10160810D+01  0.00000000D+00  0.00000000D+00
  0.00000000D+00  0.18419209D+00  0.00000000D+00  0.00000000D+00  0.00000000D+00
  0.00000000D+00  0.00000000D+00  0.00000000D+00
MO    4     MO 0.0        OCC NO =    1.6666667  ORB. ENERGY =   -0.681651
  0.00000000D+00  0.00000000D+00  0.00000000D+00  0.00000000D+00  0.00000000D+00
  0.00000000D+00  0.00000000D+00  0.00000000D+00  0.00000000D+00  0.31009711D+01
  0.23935218D+01  0.10160810D+01  0.00000000D+00  0.00000000D+00  0.00000000D+00
  0.00000000D+00  0.00000000D+00  0.00000000D+00  0.00000000D+00  0.18419209D+00
  0.00000000D+00  0.00000000D+00  0.00000000D+00  0.00000000D+00  0.00000000D+00
  0.00000000D+00  0.00000000D+00  0.00000000D+00
MO    5     MO 0.0        OCC NO =    1.6666667  ORB. ENERGY =   -0.227967
  0.00000000D+00  0.00000000D+00  0.00000000D+00  0.00000000D+00  0.00000000D+00
  0.00000000D+00  0.00000000D+00  0.00000000D+00  0.00000000D+00  0.00000000D+00
  0.00000000D+00  0.00000000D+00  0.32093866D+01  0.24772036D+01  0.10516050D+01
  0.00000000D+00  0.00000000D+00  0.00000000D+00  0.00000000D+00  0.00000000D+00
  0.17335756D+00  0.00000000D+00  0.00000000D+00  0.00000000D+00  0.00000000D+00
  0.00000000D+00  0.00000000D+00  0.00000000D+00
END DATA
 THE  HF ENERGY =    -99.361791818637 THE VIRIAL(-V/T)=   2.00202768
