 Generated by Multiwfn
GAUSSIAN             25 MOL ORBITALS    104 PRIMITIVES        1 NUCLEI
  Fe   1    (CENTRE  1)   0.00000000  0.00000000  0.00000000  CHARGE = 26.0
CENTRE ASSIGNMENTS    1  1  1  1  1  1  1  1  1  1  1  1  1  1  1  1  1  1  1  1
CENTRE ASSIGNMENTS    1  1  1  1  1  1  1  1  1  1  1  1  1  1  1  1  1  1  1  1
CENTRE ASSIGNMENTS    1  1  1  1  1  1  1  1  1  1  1  1  1  1  1  1  1  1  1  1
CENTRE ASSIGNMENTS    1  1  1  1  1  1  1  1  1  1  1  1  1  1  1  1  1  1  1  1
CENTRE ASSIGNMENTS    1  1  1  1  1  1  1  1  1  1  1  1  1  1  1  1  1  1  1  1
CENTRE ASSIGNMENTS    1  1  1  1
TYPE ASSIGNMENTS      1  1  1  1  1  1  1  1  1  1  1  1  2  2  2  2  2  2  3  3
TYPE ASSIGNMENTS      3  3  3  3  4  4  4  4  4  4  1  1  1  1  1  1  2  2  2  2
TYPE ASSIGNMENTS      2  2  3  3  3  3  3  3  4  4  4  4  4  4  1  1  1  2  2  2
TYPE ASSIGNMENTS      3  3  3  4  4  4  1  2  3  4  5  5  5  6  6  6  7  7  7  8
TYPE ASSIGNMENTS      8  8  9  9  9 10 10 10  5  6  7  8  9 10 11 12 13 17 14 15
TYPE ASSIGNMENTS     18 19 16 20
EXPONENTS  0.6113262D+05 0.9179342D+04 0.2090857D+04 0.5892479D+03 0.1887543D+03
EXPONENTS  0.6444629D+02 0.1259980D+04 0.2998761D+03 0.9684917D+02 0.3631020D+02
EXPONENTS  0.1472996D+02 0.6066075D+01 0.1259980D+04 0.2998761D+03 0.9684917D+02
EXPONENTS  0.3631020D+02 0.1472996D+02 0.6066075D+01 0.1259980D+04 0.2998761D+03
EXPONENTS  0.9684917D+02 0.3631020D+02 0.1472996D+02 0.6066075D+01 0.1259980D+04
EXPONENTS  0.2998761D+03 0.9684917D+02 0.3631020D+02 0.1472996D+02 0.6066075D+01
EXPONENTS  0.5043485D+02 0.1683929D+02 0.7192086D+01 0.3053420D+01 0.1273643D+01
EXPONENTS  0.5040910D+00 0.5043485D+02 0.1683929D+02 0.7192086D+01 0.3053420D+01
EXPONENTS  0.1273643D+01 0.5040910D+00 0.5043485D+02 0.1683929D+02 0.7192086D+01
EXPONENTS  0.3053420D+01 0.1273643D+01 0.5040910D+00 0.5043485D+02 0.1683929D+02
EXPONENTS  0.7192086D+01 0.3053420D+01 0.1273643D+01 0.5040910D+00 0.1950316D+01
EXPONENTS  0.7367210D+00 0.1141770D+00 0.1950316D+01 0.7367210D+00 0.1141770D+00
EXPONENTS  0.1950316D+01 0.7367210D+00 0.1141770D+00 0.1950316D+01 0.7367210D+00
EXPONENTS  0.1141770D+00 0.4114800D-01 0.4114800D-01 0.4114800D-01 0.4114800D-01
EXPONENTS  0.2314994D+02 0.6122368D+01 0.1846601D+01 0.2314994D+02 0.6122368D+01
EXPONENTS  0.1846601D+01 0.2314994D+02 0.6122368D+01 0.1846601D+01 0.2314994D+02
EXPONENTS  0.6122368D+01 0.1846601D+01 0.2314994D+02 0.6122368D+01 0.1846601D+01
EXPONENTS  0.2314994D+02 0.6122368D+01 0.1846601D+01 0.5043610D+00 0.5043610D+00
EXPONENTS  0.5043610D+00 0.5043610D+00 0.5043610D+00 0.5043610D+00 0.8000000D+00
EXPONENTS  0.8000000D+00 0.8000000D+00 0.8000000D+00 0.8000000D+00 0.8000000D+00
EXPONENTS  0.8000000D+00 0.8000000D+00 0.8000000D+00 0.8000000D+00
MO    1     MO 0.0        OCC NO =    1.0000000  ORB. ENERGY = -256.103113
  0.48759814D+01  0.90106878D+01  0.14652509D+02  0.19659868D+02  0.17347500D+02
  0.56565404D+01 -0.42770486D-02 -0.19272726D-01 -0.32415012D-01  0.38527677D-02
  0.38717710D-01  0.14438090D-01  0.00000000D+00  0.00000000D+00  0.00000000D+00
  0.00000000D+00  0.00000000D+00  0.00000000D+00  0.00000000D+00  0.00000000D+00
  0.00000000D+00  0.00000000D+00  0.00000000D+00  0.00000000D+00  0.00000000D+00
  0.00000000D+00  0.00000000D+00  0.00000000D+00  0.00000000D+00  0.00000000D+00
 -0.13942881D-02  0.11378849D-01  0.21356529D-01 -0.12665964D-01 -0.16744687D-01
 -0.23319903D-02  0.00000000D+00  0.00000000D+00  0.00000000D+00  0.00000000D+00
  0.00000000D+00  0.00000000D+00  0.00000000D+00  0.00000000D+00  0.00000000D+00
  0.00000000D+00  0.00000000D+00  0.00000000D+00  0.00000000D+00  0.00000000D+00
  0.00000000D+00  0.00000000D+00  0.00000000D+00  0.00000000D+00  0.82195709D-04
  0.20049142D-03 -0.19551207D-03  0.00000000D+00  0.00000000D+00  0.00000000D+00
  0.00000000D+00  0.00000000D+00  0.00000000D+00  0.00000000D+00  0.00000000D+00
  0.00000000D+00  0.30371309D-04  0.00000000D+00  0.00000000D+00  0.00000000D+00
  0.37454876D+00  0.16034173D+00  0.35436613D-01  0.37466157D+00  0.16039002D+00
  0.35447286D-01  0.37454876D+00  0.16034173D+00  0.35436613D-01  0.00000000D+00
  0.00000000D+00  0.00000000D+00  0.00000000D+00  0.00000000D+00  0.00000000D+00
  0.00000000D+00  0.00000000D+00  0.00000000D+00  0.78988974D-03  0.78927258D-03
  0.78988974D-03  0.00000000D+00  0.00000000D+00  0.00000000D+00  0.00000000D+00
  0.00000000D+00  0.00000000D+00  0.00000000D+00  0.00000000D+00  0.00000000D+00
  0.00000000D+00  0.00000000D+00  0.00000000D+00  0.00000000D+00
MO    2     MO 0.0        OCC NO =    1.0000000  ORB. ENERGY =  -30.103647
  0.14817594D+01  0.27382531D+01  0.44527431D+01  0.59744269D+01  0.52717225D+01
  0.17189630D+01  0.38067949D+00  0.17153725D+01  0.28851041D+01 -0.34291629D+00
 -0.34460768D+01 -0.12850648D+01  0.00000000D+00  0.00000000D+00  0.00000000D+00
  0.00000000D+00  0.00000000D+00  0.00000000D+00  0.00000000D+00  0.00000000D+00
  0.00000000D+00  0.00000000D+00  0.00000000D+00  0.00000000D+00  0.00000000D+00
  0.00000000D+00  0.00000000D+00  0.00000000D+00  0.00000000D+00  0.00000000D+00
 -0.23945871D-02  0.19542335D-01  0.36678266D-01 -0.21752861D-01 -0.28757768D-01
 -0.40050216D-02  0.00000000D+00  0.00000000D+00  0.00000000D+00  0.00000000D+00
  0.00000000D+00  0.00000000D+00  0.00000000D+00  0.00000000D+00  0.00000000D+00
  0.00000000D+00  0.00000000D+00  0.00000000D+00  0.00000000D+00  0.00000000D+00
  0.00000000D+00  0.00000000D+00  0.00000000D+00  0.00000000D+00  0.31386561D-03
  0.76557964D-03 -0.74656592D-03  0.00000000D+00  0.00000000D+00  0.00000000D+00
  0.00000000D+00  0.00000000D+00  0.00000000D+00  0.00000000D+00  0.00000000D+00
  0.00000000D+00  0.12029772D-03  0.00000000D+00  0.00000000D+00  0.00000000D+00
  0.41608023D+00  0.17812106D+00  0.39365967D-01  0.37419648D+00  0.16019092D+00
  0.35403283D-01  0.41608023D+00  0.17812106D+00  0.39365967D-01  0.00000000D+00
  0.00000000D+00  0.00000000D+00  0.00000000D+00  0.00000000D+00  0.00000000D+00
  0.00000000D+00  0.00000000D+00  0.00000000D+00  0.20980241D-02  0.22696926D-02
  0.20980241D-02  0.00000000D+00  0.00000000D+00  0.00000000D+00  0.00000000D+00
  0.00000000D+00  0.00000000D+00  0.00000000D+00  0.00000000D+00  0.00000000D+00
  0.00000000D+00  0.00000000D+00  0.00000000D+00  0.00000000D+00
MO    3     MO 0.0        OCC NO =    1.0000000  ORB. ENERGY =  -25.982555
  0.00000000D+00  0.00000000D+00  0.00000000D+00  0.00000000D+00  0.00000000D+00
  0.00000000D+00  0.00000000D+00  0.00000000D+00  0.00000000D+00  0.00000000D+00
  0.00000000D+00  0.00000000D+00  0.00000000D+00  0.00000000D+00  0.00000000D+00
  0.00000000D+00  0.00000000D+00  0.00000000D+00  0.42915857D+02  0.55695606D+02
  0.59003574D+02  0.44115261D+02  0.18913466D+02  0.27604961D+01  0.00000000D+00
  0.00000000D+00  0.00000000D+00  0.00000000D+00  0.00000000D+00  0.00000000D+00
  0.00000000D+00  0.00000000D+00  0.00000000D+00  0.00000000D+00  0.00000000D+00
  0.00000000D+00  0.00000000D+00  0.00000000D+00  0.00000000D+00  0.00000000D+00
  0.00000000D+00  0.00000000D+00 -0.15307464D-01 -0.15932159D-01  0.11816386D-01
  0.25909211D-01  0.10956169D-01  0.12348752D-02  0.00000000D+00  0.00000000D+00
  0.00000000D+00  0.00000000D+00  0.00000000D+00  0.00000000D+00  0.00000000D+00
  0.00000000D+00  0.00000000D+00  0.00000000D+00  0.00000000D+00  0.00000000D+00
  0.50336034D-02 -0.92549815D-03 -0.28639606D-03  0.00000000D+00  0.00000000D+00
  0.00000000D+00  0.00000000D+00  0.00000000D+00  0.46293244D-04  0.00000000D+00
  0.00000000D+00  0.00000000D+00  0.00000000D+00  0.00000000D+00  0.00000000D+00
  0.00000000D+00  0.00000000D+00  0.00000000D+00  0.00000000D+00  0.00000000D+00
  0.00000000D+00  0.00000000D+00  0.00000000D+00  0.00000000D+00  0.00000000D+00
  0.00000000D+00  0.00000000D+00  0.00000000D+00  0.00000000D+00  0.00000000D+00
  0.00000000D+00  0.00000000D+00  0.00000000D+00  0.00000000D+00  0.00000000D+00
  0.33253342D-04  0.00000000D+00  0.00000000D+00 -0.49880014D-04  0.00000000D+00
  0.00000000D+00 -0.49880014D-04  0.00000000D+00  0.00000000D+00
MO    4     MO 0.0        OCC NO =    1.0000000  ORB. ENERGY =  -25.948892
  0.00000000D+00  0.00000000D+00  0.00000000D+00  0.00000000D+00  0.00000000D+00
  0.00000000D+00  0.00000000D+00  0.00000000D+00  0.00000000D+00  0.00000000D+00
  0.00000000D+00  0.00000000D+00  0.00000000D+00  0.00000000D+00  0.00000000D+00
  0.00000000D+00  0.00000000D+00  0.00000000D+00  0.00000000D+00  0.00000000D+00
  0.00000000D+00  0.00000000D+00  0.00000000D+00  0.00000000D+00  0.42923907D+02
  0.55706053D+02  0.59014641D+02  0.44123536D+02  0.18917013D+02  0.27610138D+01
  0.00000000D+00  0.00000000D+00  0.00000000D+00  0.00000000D+00  0.00000000D+00
  0.00000000D+00  0.00000000D+00  0.00000000D+00  0.00000000D+00  0.00000000D+00
  0.00000000D+00  0.00000000D+00  0.00000000D+00  0.00000000D+00  0.00000000D+00
  0.00000000D+00  0.00000000D+00  0.00000000D+00 -0.14676584D-01 -0.15275532D-01
  0.11329387D-01  0.24841390D-01  0.10504622D-01  0.11839811D-02  0.00000000D+00
  0.00000000D+00  0.00000000D+00  0.00000000D+00  0.00000000D+00  0.00000000D+00
  0.00000000D+00  0.00000000D+00  0.00000000D+00  0.47236266D-02 -0.86850460D-03
 -0.26875936D-03  0.00000000D+00  0.00000000D+00  0.00000000D+00  0.43356564D-04
  0.00000000D+00  0.00000000D+00  0.00000000D+00  0.00000000D+00  0.00000000D+00
  0.00000000D+00  0.00000000D+00  0.00000000D+00  0.00000000D+00  0.00000000D+00
  0.00000000D+00  0.00000000D+00  0.00000000D+00  0.00000000D+00  0.00000000D+00
  0.00000000D+00  0.00000000D+00  0.00000000D+00  0.00000000D+00  0.00000000D+00
  0.00000000D+00  0.00000000D+00  0.00000000D+00  0.00000000D+00  0.00000000D+00
  0.00000000D+00 -0.31648723D-04  0.00000000D+00  0.00000000D+00  0.18592879D-04
  0.00000000D+00  0.00000000D+00  0.76353291D-04  0.00000000D+00
MO    5     MO 0.0        OCC NO =    1.0000000  ORB. ENERGY =  -25.948892
  0.00000000D+00  0.00000000D+00  0.00000000D+00  0.00000000D+00  0.00000000D+00
  0.00000000D+00  0.00000000D+00  0.00000000D+00  0.00000000D+00  0.00000000D+00
  0.00000000D+00  0.00000000D+00  0.42923907D+02  0.55706053D+02  0.59014641D+02
  0.44123536D+02  0.18917013D+02  0.27610138D+01  0.00000000D+00  0.00000000D+00
  0.00000000D+00  0.00000000D+00  0.00000000D+00  0.00000000D+00  0.00000000D+00
  0.00000000D+00  0.00000000D+00  0.00000000D+00  0.00000000D+00  0.00000000D+00
  0.00000000D+00  0.00000000D+00  0.00000000D+00  0.00000000D+00  0.00000000D+00
  0.00000000D+00 -0.14676584D-01 -0.15275532D-01  0.11329387D-01  0.24841390D-01
  0.10504622D-01  0.11839811D-02  0.00000000D+00  0.00000000D+00  0.00000000D+00
  0.00000000D+00  0.00000000D+00  0.00000000D+00  0.00000000D+00  0.00000000D+00
  0.00000000D+00  0.00000000D+00  0.00000000D+00  0.00000000D+00  0.00000000D+00
  0.00000000D+00  0.00000000D+00  0.47236266D-02 -0.86850460D-03 -0.26875936D-03
  0.00000000D+00  0.00000000D+00  0.00000000D+00  0.00000000D+00  0.00000000D+00
  0.00000000D+00  0.00000000D+00  0.43356564D-04  0.00000000D+00  0.00000000D+00
  0.00000000D+00  0.00000000D+00  0.00000000D+00  0.00000000D+00  0.00000000D+00
  0.00000000D+00  0.00000000D+00  0.00000000D+00  0.00000000D+00  0.00000000D+00
  0.00000000D+00  0.00000000D+00  0.00000000D+00  0.00000000D+00  0.00000000D+00
  0.00000000D+00  0.00000000D+00  0.00000000D+00  0.00000000D+00  0.00000000D+00
  0.00000000D+00  0.00000000D+00  0.00000000D+00  0.00000000D+00 -0.31648723D-04
  0.00000000D+00  0.00000000D+00  0.76353291D-04  0.00000000D+00  0.00000000D+00
  0.18592879D-04  0.00000000D+00  0.00000000D+00  0.00000000D+00
MO    6     MO 0.0        OCC NO =    1.0000000  ORB. ENERGY =   -3.571877
 -0.55528049D+00 -0.10261440D+01 -0.16686389D+01 -0.22388809D+01 -0.19755466D+01
 -0.64417115D+00 -0.16499435D+00 -0.74347783D+00 -0.12504637D+01  0.14862700D+00
  0.14936008D+01  0.55697361D+00  0.00000000D+00  0.00000000D+00  0.00000000D+00
  0.00000000D+00  0.00000000D+00  0.00000000D+00  0.00000000D+00  0.00000000D+00
  0.00000000D+00  0.00000000D+00  0.00000000D+00  0.00000000D+00  0.00000000D+00
  0.00000000D+00  0.00000000D+00  0.00000000D+00  0.00000000D+00  0.00000000D+00
 -0.56272735D-01  0.45924438D+00  0.86193831D+00 -0.51119167D+00 -0.67580680D+00
 -0.94117905D-01  0.00000000D+00  0.00000000D+00  0.00000000D+00  0.00000000D+00
  0.00000000D+00  0.00000000D+00  0.00000000D+00  0.00000000D+00  0.00000000D+00
  0.00000000D+00  0.00000000D+00  0.00000000D+00  0.00000000D+00  0.00000000D+00
  0.00000000D+00  0.00000000D+00  0.00000000D+00  0.00000000D+00 -0.87466905D-04
 -0.21334890D-03  0.20805023D-03  0.00000000D+00  0.00000000D+00  0.00000000D+00
  0.00000000D+00  0.00000000D+00  0.00000000D+00  0.00000000D+00  0.00000000D+00
  0.00000000D+00 -0.43610789D-04  0.00000000D+00  0.00000000D+00  0.00000000D+00
  0.15607488D+00  0.66814573D-01  0.14766475D-01 -0.60029909D+00 -0.25698388D+00
 -0.56795186D-01  0.15607488D+00  0.66814573D-01  0.14766475D-01  0.00000000D+00
  0.00000000D+00  0.00000000D+00  0.00000000D+00  0.00000000D+00  0.00000000D+00
  0.00000000D+00  0.00000000D+00  0.00000000D+00  0.76819001D-03 -0.93864599D-03
  0.76819001D-03  0.00000000D+00  0.00000000D+00  0.00000000D+00  0.00000000D+00
  0.00000000D+00  0.00000000D+00  0.00000000D+00  0.00000000D+00  0.00000000D+00
  0.00000000D+00  0.00000000D+00  0.00000000D+00  0.00000000D+00
MO    7     MO 0.0        OCC NO =    1.0000000  ORB. ENERGY =   -2.392313
  0.00000000D+00  0.00000000D+00  0.00000000D+00  0.00000000D+00  0.00000000D+00
  0.00000000D+00  0.00000000D+00  0.00000000D+00  0.00000000D+00  0.00000000D+00
  0.00000000D+00  0.00000000D+00  0.00000000D+00  0.00000000D+00  0.00000000D+00
  0.00000000D+00  0.00000000D+00  0.00000000D+00 -0.16078030D+02 -0.20865845D+02
 -0.22105144D+02 -0.16527375D+02 -0.70857553D+01 -0.10341944D+01  0.00000000D+00
  0.00000000D+00  0.00000000D+00  0.00000000D+00  0.00000000D+00  0.00000000D+00
  0.00000000D+00  0.00000000D+00  0.00000000D+00  0.00000000D+00  0.00000000D+00
  0.00000000D+00  0.00000000D+00  0.00000000D+00  0.00000000D+00  0.00000000D+00
  0.00000000D+00  0.00000000D+00 -0.14293667D+01 -0.14876989D+01  0.11033799D+01
  0.24193271D+01  0.10230553D+01  0.11530907D+00  0.00000000D+00  0.00000000D+00
  0.00000000D+00  0.00000000D+00  0.00000000D+00  0.00000000D+00  0.00000000D+00
  0.00000000D+00  0.00000000D+00  0.00000000D+00  0.00000000D+00  0.00000000D+00
  0.10464428D-01 -0.19240309D-02 -0.59539273D-03  0.00000000D+00  0.00000000D+00
  0.00000000D+00  0.00000000D+00  0.00000000D+00  0.13465423D-03  0.00000000D+00
  0.00000000D+00  0.00000000D+00  0.00000000D+00  0.00000000D+00  0.00000000D+00
  0.00000000D+00  0.00000000D+00  0.00000000D+00  0.00000000D+00  0.00000000D+00
  0.00000000D+00  0.00000000D+00  0.00000000D+00  0.00000000D+00  0.00000000D+00
  0.00000000D+00  0.00000000D+00  0.00000000D+00  0.00000000D+00  0.00000000D+00
  0.00000000D+00  0.00000000D+00  0.00000000D+00  0.00000000D+00  0.00000000D+00
  0.37899872D-02  0.00000000D+00  0.00000000D+00 -0.56849809D-02  0.00000000D+00
  0.00000000D+00 -0.56849809D-02  0.00000000D+00  0.00000000D+00
MO    8     MO 0.0        OCC NO =    1.0000000  ORB. ENERGY =   -2.322743
  0.00000000D+00  0.00000000D+00  0.00000000D+00  0.00000000D+00  0.00000000D+00
  0.00000000D+00  0.00000000D+00  0.00000000D+00  0.00000000D+00  0.00000000D+00
  0.00000000D+00  0.00000000D+00 -0.16034896D+02 -0.20809866D+02 -0.22045841D+02
 -0.16483036D+02 -0.70667456D+01 -0.10314198D+01  0.00000000D+00  0.00000000D+00
  0.00000000D+00  0.00000000D+00  0.00000000D+00  0.00000000D+00  0.00000000D+00
  0.00000000D+00  0.00000000D+00  0.00000000D+00  0.00000000D+00  0.00000000D+00
  0.00000000D+00  0.00000000D+00  0.00000000D+00  0.00000000D+00  0.00000000D+00
  0.00000000D+00 -0.14292719D+01 -0.14876002D+01  0.11033067D+01  0.24191666D+01
  0.10229875D+01  0.11530142D+00  0.00000000D+00  0.00000000D+00  0.00000000D+00
  0.00000000D+00  0.00000000D+00  0.00000000D+00  0.00000000D+00  0.00000000D+00
  0.00000000D+00  0.00000000D+00  0.00000000D+00  0.00000000D+00  0.00000000D+00
  0.00000000D+00  0.00000000D+00  0.30667914D-02 -0.56387235D-03 -0.17449070D-03
  0.00000000D+00  0.00000000D+00  0.00000000D+00  0.00000000D+00  0.00000000D+00
  0.00000000D+00  0.00000000D+00  0.76394589D-04  0.00000000D+00  0.00000000D+00
  0.00000000D+00  0.00000000D+00  0.00000000D+00  0.00000000D+00  0.00000000D+00
  0.00000000D+00  0.00000000D+00  0.00000000D+00  0.00000000D+00  0.00000000D+00
  0.00000000D+00  0.00000000D+00  0.00000000D+00  0.00000000D+00  0.00000000D+00
  0.00000000D+00  0.00000000D+00  0.00000000D+00  0.00000000D+00  0.00000000D+00
  0.00000000D+00  0.00000000D+00  0.00000000D+00  0.00000000D+00 -0.36349123D-02
  0.00000000D+00  0.00000000D+00  0.88693440D-02  0.00000000D+00  0.00000000D+00
  0.20353928D-02  0.00000000D+00  0.00000000D+00  0.00000000D+00
MO    9     MO 0.0        OCC NO =    1.0000000  ORB. ENERGY =   -2.322743
  0.00000000D+00  0.00000000D+00  0.00000000D+00  0.00000000D+00  0.00000000D+00
  0.00000000D+00  0.00000000D+00  0.00000000D+00  0.00000000D+00  0.00000000D+00
  0.00000000D+00  0.00000000D+00  0.00000000D+00  0.00000000D+00  0.00000000D+00
  0.00000000D+00  0.00000000D+00  0.00000000D+00  0.00000000D+00  0.00000000D+00
  0.00000000D+00  0.00000000D+00  0.00000000D+00  0.00000000D+00 -0.16034896D+02
 -0.20809866D+02 -0.22045841D+02 -0.16483036D+02 -0.70667456D+01 -0.10314198D+01
  0.00000000D+00  0.00000000D+00  0.00000000D+00  0.00000000D+00  0.00000000D+00
  0.00000000D+00  0.00000000D+00  0.00000000D+00  0.00000000D+00  0.00000000D+00
  0.00000000D+00  0.00000000D+00  0.00000000D+00  0.00000000D+00  0.00000000D+00
  0.00000000D+00  0.00000000D+00  0.00000000D+00 -0.14292719D+01 -0.14876002D+01
  0.11033067D+01  0.24191666D+01  0.10229875D+01  0.11530142D+00  0.00000000D+00
  0.00000000D+00  0.00000000D+00  0.00000000D+00  0.00000000D+00  0.00000000D+00
  0.00000000D+00  0.00000000D+00  0.00000000D+00  0.30667914D-02 -0.56387235D-03
 -0.17449070D-03  0.00000000D+00  0.00000000D+00  0.00000000D+00  0.76394589D-04
  0.00000000D+00  0.00000000D+00  0.00000000D+00  0.00000000D+00  0.00000000D+00
  0.00000000D+00  0.00000000D+00  0.00000000D+00  0.00000000D+00  0.00000000D+00
  0.00000000D+00  0.00000000D+00  0.00000000D+00  0.00000000D+00  0.00000000D+00
  0.00000000D+00  0.00000000D+00  0.00000000D+00  0.00000000D+00  0.00000000D+00
  0.00000000D+00  0.00000000D+00  0.00000000D+00  0.00000000D+00  0.00000000D+00
  0.00000000D+00 -0.36349123D-02  0.00000000D+00  0.00000000D+00  0.20353928D-02
  0.00000000D+00  0.00000000D+00  0.88693440D-02  0.00000000D+00
MO   10     MO 0.0        OCC NO =    1.2000000  ORB. ENERGY =   -0.377278
 -0.80260304D-02 -0.14831897D-01 -0.24118525D-01 -0.32360809D-01 -0.28554572D-01
 -0.93108569D-02 -0.24249196D-02 -0.10926883D-01 -0.18378046D-01  0.21843689D-02
  0.21951430D-01  0.81858331D-02  0.00000000D+00  0.00000000D+00  0.00000000D+00
  0.00000000D+00  0.00000000D+00  0.00000000D+00  0.00000000D+00  0.00000000D+00
  0.00000000D+00  0.00000000D+00  0.00000000D+00  0.00000000D+00  0.00000000D+00
  0.00000000D+00  0.00000000D+00  0.00000000D+00  0.00000000D+00  0.00000000D+00
 -0.95190600D-03  0.77685486D-02  0.14580493D-01 -0.86472857D-02 -0.11431905D-01
 -0.15920925D-02  0.00000000D+00  0.00000000D+00  0.00000000D+00  0.00000000D+00
  0.00000000D+00  0.00000000D+00  0.00000000D+00  0.00000000D+00  0.00000000D+00
  0.00000000D+00  0.00000000D+00  0.00000000D+00  0.00000000D+00  0.00000000D+00
  0.00000000D+00  0.00000000D+00  0.00000000D+00  0.00000000D+00 -0.16945231D-03
 -0.41332735D-03  0.40306207D-03  0.00000000D+00  0.00000000D+00  0.00000000D+00
  0.00000000D+00  0.00000000D+00  0.00000000D+00  0.00000000D+00  0.00000000D+00
  0.00000000D+00  0.33253764D-04  0.00000000D+00  0.00000000D+00  0.00000000D+00
 -0.13231944D+02 -0.56645035D+01 -0.12518938D+01  0.26498601D+02  0.11343867D+02
  0.25070718D+01 -0.13231944D+02 -0.56645035D+01 -0.12518938D+01  0.00000000D+00
  0.00000000D+00  0.00000000D+00  0.00000000D+00  0.00000000D+00  0.00000000D+00
  0.00000000D+00  0.00000000D+00  0.00000000D+00 -0.10849141D+00  0.21817745D+00
 -0.10849141D+00  0.00000000D+00  0.00000000D+00  0.00000000D+00  0.00000000D+00
  0.00000000D+00  0.00000000D+00  0.00000000D+00  0.00000000D+00  0.00000000D+00
  0.00000000D+00  0.00000000D+00  0.00000000D+00  0.00000000D+00
MO   11     MO 0.0        OCC NO =    1.2000000  ORB. ENERGY =   -0.368335
  0.00000000D+00  0.00000000D+00  0.00000000D+00  0.00000000D+00  0.00000000D+00
  0.00000000D+00  0.00000000D+00  0.00000000D+00  0.00000000D+00  0.00000000D+00
  0.00000000D+00  0.00000000D+00  0.00000000D+00  0.00000000D+00  0.00000000D+00
  0.00000000D+00  0.00000000D+00  0.00000000D+00  0.00000000D+00  0.00000000D+00
  0.00000000D+00  0.00000000D+00  0.00000000D+00  0.00000000D+00  0.00000000D+00
  0.00000000D+00  0.00000000D+00  0.00000000D+00  0.00000000D+00  0.00000000D+00
  0.00000000D+00  0.00000000D+00  0.00000000D+00  0.00000000D+00  0.00000000D+00
  0.00000000D+00  0.00000000D+00  0.00000000D+00  0.00000000D+00  0.00000000D+00
  0.00000000D+00  0.00000000D+00  0.00000000D+00  0.00000000D+00  0.00000000D+00
  0.00000000D+00  0.00000000D+00  0.00000000D+00  0.00000000D+00  0.00000000D+00
  0.00000000D+00  0.00000000D+00  0.00000000D+00  0.00000000D+00  0.00000000D+00
  0.00000000D+00  0.00000000D+00  0.00000000D+00  0.00000000D+00  0.00000000D+00
  0.00000000D+00  0.00000000D+00  0.00000000D+00  0.00000000D+00  0.00000000D+00
  0.00000000D+00  0.00000000D+00  0.00000000D+00  0.00000000D+00  0.00000000D+00
  0.00000000D+00  0.00000000D+00  0.00000000D+00  0.00000000D+00  0.00000000D+00
  0.00000000D+00  0.00000000D+00  0.00000000D+00  0.00000000D+00  0.45807416D+02
  0.19609837D+02  0.43339074D+01  0.00000000D+00  0.00000000D+00  0.00000000D+00
  0.00000000D+00  0.00000000D+00  0.00000000D+00  0.00000000D+00  0.00000000D+00
  0.00000000D+00  0.37854860D+00  0.00000000D+00  0.00000000D+00  0.00000000D+00
  0.00000000D+00  0.00000000D+00  0.00000000D+00  0.00000000D+00  0.00000000D+00
  0.00000000D+00  0.00000000D+00  0.00000000D+00  0.00000000D+00
MO   12     MO 0.0        OCC NO =    1.2000000  ORB. ENERGY =   -0.368335
  0.00000000D+00  0.00000000D+00  0.00000000D+00  0.00000000D+00  0.00000000D+00
  0.00000000D+00  0.00000000D+00  0.00000000D+00  0.00000000D+00  0.00000000D+00
  0.00000000D+00  0.00000000D+00  0.00000000D+00  0.00000000D+00  0.00000000D+00
  0.00000000D+00  0.00000000D+00  0.00000000D+00  0.00000000D+00  0.00000000D+00
  0.00000000D+00  0.00000000D+00  0.00000000D+00  0.00000000D+00  0.00000000D+00
  0.00000000D+00  0.00000000D+00  0.00000000D+00  0.00000000D+00  0.00000000D+00
  0.00000000D+00  0.00000000D+00  0.00000000D+00  0.00000000D+00  0.00000000D+00
  0.00000000D+00  0.00000000D+00  0.00000000D+00  0.00000000D+00  0.00000000D+00
  0.00000000D+00  0.00000000D+00  0.00000000D+00  0.00000000D+00  0.00000000D+00
  0.00000000D+00  0.00000000D+00  0.00000000D+00  0.00000000D+00  0.00000000D+00
  0.00000000D+00  0.00000000D+00  0.00000000D+00  0.00000000D+00  0.00000000D+00
  0.00000000D+00  0.00000000D+00  0.00000000D+00  0.00000000D+00  0.00000000D+00
  0.00000000D+00  0.00000000D+00  0.00000000D+00  0.00000000D+00  0.00000000D+00
  0.00000000D+00  0.00000000D+00  0.00000000D+00  0.00000000D+00  0.00000000D+00
  0.00000000D+00  0.00000000D+00  0.00000000D+00  0.00000000D+00  0.00000000D+00
  0.00000000D+00  0.00000000D+00  0.00000000D+00  0.00000000D+00  0.00000000D+00
  0.00000000D+00  0.00000000D+00  0.00000000D+00  0.00000000D+00  0.00000000D+00
  0.45807416D+02  0.19609837D+02  0.43339074D+01  0.00000000D+00  0.00000000D+00
  0.00000000D+00  0.00000000D+00  0.00000000D+00  0.37854860D+00  0.00000000D+00
  0.00000000D+00  0.00000000D+00  0.00000000D+00  0.00000000D+00  0.00000000D+00
  0.00000000D+00  0.00000000D+00  0.00000000D+00  0.00000000D+00
MO   13     MO 0.0        OCC NO =    1.2000000  ORB. ENERGY =   -0.339196
  0.00000000D+00  0.00000000D+00  0.00000000D+00  0.00000000D+00  0.00000000D+00
  0.00000000D+00  0.00000000D+00  0.00000000D+00  0.00000000D+00  0.00000000D+00
  0.00000000D+00  0.00000000D+00  0.00000000D+00  0.00000000D+00  0.00000000D+00
  0.00000000D+00  0.00000000D+00  0.00000000D+00  0.00000000D+00  0.00000000D+00
  0.00000000D+00  0.00000000D+00  0.00000000D+00  0.00000000D+00  0.00000000D+00
  0.00000000D+00  0.00000000D+00  0.00000000D+00  0.00000000D+00  0.00000000D+00
  0.00000000D+00  0.00000000D+00  0.00000000D+00  0.00000000D+00  0.00000000D+00
  0.00000000D+00  0.00000000D+00  0.00000000D+00  0.00000000D+00  0.00000000D+00
  0.00000000D+00  0.00000000D+00  0.00000000D+00  0.00000000D+00  0.00000000D+00
  0.00000000D+00  0.00000000D+00  0.00000000D+00  0.00000000D+00  0.00000000D+00
  0.00000000D+00  0.00000000D+00  0.00000000D+00  0.00000000D+00  0.00000000D+00
  0.00000000D+00  0.00000000D+00  0.00000000D+00  0.00000000D+00  0.00000000D+00
  0.00000000D+00  0.00000000D+00  0.00000000D+00  0.00000000D+00  0.00000000D+00
  0.00000000D+00  0.00000000D+00  0.00000000D+00  0.00000000D+00  0.00000000D+00
  0.00000000D+00  0.00000000D+00  0.00000000D+00  0.00000000D+00  0.00000000D+00
  0.00000000D+00  0.00000000D+00  0.00000000D+00  0.00000000D+00  0.00000000D+00
  0.00000000D+00  0.00000000D+00  0.45545802D+02  0.19497842D+02  0.43091558D+01
  0.00000000D+00  0.00000000D+00  0.00000000D+00  0.00000000D+00  0.00000000D+00
  0.00000000D+00  0.00000000D+00  0.38307781D+00  0.00000000D+00  0.00000000D+00
  0.00000000D+00  0.00000000D+00  0.00000000D+00  0.00000000D+00  0.00000000D+00
  0.00000000D+00  0.00000000D+00  0.00000000D+00  0.00000000D+00
MO   14     MO 0.0        OCC NO =    1.2000000  ORB. ENERGY =   -0.302258
 -0.81807318D-14 -0.15117781D-13 -0.24583409D-13 -0.32984562D-13 -0.29104961D-13
 -0.94903234D-14 -0.53530281D-14 -0.24121176D-13 -0.40569675D-13  0.48220106D-14
  0.48457946D-13  0.18070288D-13  0.00000000D+00  0.00000000D+00  0.00000000D+00
  0.00000000D+00  0.00000000D+00  0.00000000D+00  0.00000000D+00  0.00000000D+00
  0.00000000D+00  0.00000000D+00  0.00000000D+00  0.00000000D+00  0.00000000D+00
  0.00000000D+00  0.00000000D+00  0.00000000D+00  0.00000000D+00  0.00000000D+00
  0.62484018D-14 -0.50993494D-13 -0.95707749D-13  0.56761608D-13  0.75040113D-13
  0.10450647D-13  0.00000000D+00  0.00000000D+00  0.00000000D+00  0.00000000D+00
  0.00000000D+00  0.00000000D+00  0.00000000D+00  0.00000000D+00  0.00000000D+00
  0.00000000D+00  0.00000000D+00  0.00000000D+00  0.00000000D+00  0.00000000D+00
  0.00000000D+00  0.00000000D+00  0.00000000D+00  0.00000000D+00 -0.53746109D-14
 -0.13109728D-13  0.12784138D-13  0.00000000D+00  0.00000000D+00  0.00000000D+00
  0.00000000D+00  0.00000000D+00  0.00000000D+00  0.00000000D+00  0.00000000D+00
  0.00000000D+00 -0.26925009D-14  0.00000000D+00  0.00000000D+00  0.00000000D+00
  0.22577379D+02  0.96652195D+01  0.21360793D+01 -0.30772874D-11 -0.13173654D-11
 -0.29114671D-12 -0.22577379D+02 -0.96652195D+01 -0.21360793D+01  0.00000000D+00
  0.00000000D+00  0.00000000D+00  0.00000000D+00  0.00000000D+00  0.00000000D+00
  0.00000000D+00  0.00000000D+00  0.00000000D+00  0.19489360D+00 -0.16886265D-13
 -0.19489360D+00  0.00000000D+00  0.00000000D+00  0.00000000D+00  0.00000000D+00
  0.00000000D+00  0.00000000D+00  0.00000000D+00  0.00000000D+00  0.00000000D+00
  0.00000000D+00  0.00000000D+00  0.00000000D+00  0.00000000D+00
MO   15     MO 0.0        OCC NO =    1.0000000  ORB. ENERGY =   -0.211722
  0.13079123D+00  0.24169882D+00  0.39303259D+00  0.52734786D+00  0.46532188D+00
  0.15172861D+00  0.40821791D-01  0.18394628D+00  0.30938130D+00 -0.36772292D-01
 -0.36953666D+00 -0.13780266D+00  0.00000000D+00  0.00000000D+00  0.00000000D+00
  0.00000000D+00  0.00000000D+00  0.00000000D+00  0.00000000D+00  0.00000000D+00
  0.00000000D+00  0.00000000D+00  0.00000000D+00  0.00000000D+00  0.00000000D+00
  0.00000000D+00  0.00000000D+00  0.00000000D+00  0.00000000D+00  0.00000000D+00
  0.16857947D-01 -0.13757848D+00 -0.25821582D+00  0.15314063D+00  0.20245534D+00
  0.28195443D-01  0.00000000D+00  0.00000000D+00  0.00000000D+00  0.00000000D+00
  0.00000000D+00  0.00000000D+00  0.00000000D+00  0.00000000D+00  0.00000000D+00
  0.00000000D+00  0.00000000D+00  0.00000000D+00  0.00000000D+00  0.00000000D+00
  0.00000000D+00  0.00000000D+00  0.00000000D+00  0.00000000D+00  0.39453026D-01
  0.96233653D-01 -0.93843620D-01  0.00000000D+00  0.00000000D+00  0.00000000D+00
  0.00000000D+00  0.00000000D+00  0.00000000D+00  0.00000000D+00  0.00000000D+00
  0.00000000D+00 -0.28229500D-01  0.00000000D+00  0.00000000D+00  0.00000000D+00
 -0.57165937D+00 -0.24472342D+00 -0.54085540D-01 -0.30186429D-01 -0.12922601D-01
 -0.28559828D-02 -0.57165937D+00 -0.24472342D+00 -0.54085540D-01  0.00000000D+00
  0.00000000D+00  0.00000000D+00  0.00000000D+00  0.00000000D+00  0.00000000D+00
  0.00000000D+00  0.00000000D+00  0.00000000D+00 -0.14812936D-01 -0.20201532D-01
 -0.14812936D-01  0.00000000D+00  0.00000000D+00  0.00000000D+00  0.00000000D+00
  0.00000000D+00  0.00000000D+00  0.00000000D+00  0.00000000D+00  0.00000000D+00
  0.00000000D+00  0.00000000D+00  0.00000000D+00  0.00000000D+00
MO   16     MO 0.0        OCC NO =    1.0000000  ORB. ENERGY = -256.102030
  0.48760000D+01  0.90107222D+01  0.14652565D+02  0.19659943D+02  0.17347566D+02
  0.56565620D+01 -0.42725122D-02 -0.19252284D-01 -0.32380632D-01  0.38486813D-02
  0.38676645D-01  0.14422776D-01  0.00000000D+00  0.00000000D+00  0.00000000D+00
  0.00000000D+00  0.00000000D+00  0.00000000D+00  0.00000000D+00  0.00000000D+00
  0.00000000D+00  0.00000000D+00  0.00000000D+00  0.00000000D+00  0.00000000D+00