 Generated by Multiwfn
GAUSSIAN              1 MOL ORBITALS      4 PRIMITIVES        1 NUCLEI
  H    1    (CENTRE  1)   0.00000000  0.00000000  0.00000000  CHARGE =  1.0
CENTRE ASSIGNMENTS    1  1  1  1
TYPE ASSIGNMENTS      1  1  1  1
EXPONENTS  0.1873114D+02 0.2825394D+01 0.6401217D+00 0.1612778D+00
MO    1     MO 0.0        OCC NO =    1.0000000  ORB. ENERGY =   -0.122585
  0.91869926D-01  0.15582878D+00  0.17740556D+00  0.12069966D+00
END DATA
 THE  HF ENERGY =     -0.498232908118 THE VIRIAL(-V/T)=   1.97718285
