 Generated by Multiwfn
GAUSSIAN             10 MOL ORBITALS     76 PRIMITIVES        1 NUCLEI
  K    1    (CENTRE  1)   0.00000000  0.00000000  0.00000000  CHARGE = 19.0
CENTRE ASSIGNMENTS    1  1  1  1  1  1  1  1  1  1  1  1  1  1  1  1  1  1  1  1
CENTRE ASSIGNMENTS    1  1  1  1  1  1  1  1  1  1  1  1  1  1  1  1  1  1  1  1
CENTRE ASSIGNMENTS    1  1  1  1  1  1  1  1  1  1  1  1  1  1  1  1  1  1  1  1
CENTRE ASSIGNMENTS    1  1  1  1  1  1  1  1  1  1  1  1  1  1  1  1
TYPE ASSIGNMENTS      1  1  1  1  1  1  1  1  1  1  1  1  2  2  2  2  2  2  3  3
TYPE ASSIGNMENTS      3  3  3  3  4  4  4  4  4  4  1  1  1  1  1  1  2  2  2  2
TYPE ASSIGNMENTS      2  2  3  3  3  3  3  3  4  4  4  4  4  4  1  1  1  2  2  2
TYPE ASSIGNMENTS      3  3  3  4  4  4  1  2  3  4  5  6  7  8  9 10
EXPONENTS  0.3159442D+05 0.4744330D+04 0.1080419D+04 0.3042338D+03 0.9724586D+02
EXPONENTS  0.3302495D+02 0.6227625D+03 0.1478839D+03 0.4732735D+02 0.1751495D+02
EXPONENTS  0.6922722D+01 0.2768277D+01 0.6227625D+03 0.1478839D+03 0.4732735D+02
EXPONENTS  0.1751495D+02 0.6922722D+01 0.2768277D+01 0.6227625D+03 0.1478839D+03
EXPONENTS  0.4732735D+02 0.1751495D+02 0.6922722D+01 0.2768277D+01 0.6227625D+03
EXPONENTS  0.1478839D+03 0.4732735D+02 0.1751495D+02 0.6922722D+01 0.2768277D+01
EXPONENTS  0.1184802D+02 0.4079211D+01 0.1763481D+01 0.7889270D+00 0.3503870D+00
EXPONENTS  0.1463440D+00 0.1184802D+02 0.4079211D+01 0.1763481D+01 0.7889270D+00
EXPONENTS  0.3503870D+00 0.1463440D+00 0.1184802D+02 0.4079211D+01 0.1763481D+01
EXPONENTS  0.7889270D+00 0.3503870D+00 0.1463440D+00 0.1184802D+02 0.4079211D+01
EXPONENTS  0.1763481D+01 0.7889270D+00 0.3503870D+00 0.1463440D+00 0.7168010D+00
EXPONENTS  0.2337410D+00 0.3867500D-01 0.7168010D+00 0.2337410D+00 0.3867500D-01
EXPONENTS  0.7168010D+00 0.2337410D+00 0.3867500D-01 0.7168010D+00 0.2337410D+00
EXPONENTS  0.3867500D-01 0.1652100D-01 0.1652100D-01 0.1652100D-01 0.1652100D-01
EXPONENTS  0.2350000D+00 0.2350000D+00 0.2350000D+00 0.2350000D+00 0.2350000D+00
EXPONENTS  0.2350000D+00
MO    1     MO 0.0        OCC NO =    2.0000000  ORB. ENERGY = -133.518722
  0.30770216D+01  0.56822214D+01  0.92188460D+01  0.12261798D+02  0.10622050D+02
  0.33317068D+01 -0.27738841D-02 -0.12499310D-01 -0.19672134D-01  0.40747022D-02
  0.23499512D-01  0.82913353D-02  0.00000000D+00  0.00000000D+00  0.00000000D+00
  0.00000000D+00  0.00000000D+00  0.00000000D+00  0.00000000D+00  0.00000000D+00
  0.00000000D+00  0.00000000D+00  0.00000000D+00  0.00000000D+00  0.00000000D+00
  0.00000000D+00  0.00000000D+00  0.00000000D+00  0.00000000D+00  0.00000000D+00
  0.17295866D-03  0.12769655D-02 -0.10040608D-04 -0.99259913D-03 -0.49569434D-03
 -0.33092427D-04  0.00000000D+00  0.00000000D+00  0.00000000D+00  0.00000000D+00
  0.00000000D+00  0.00000000D+00  0.00000000D+00  0.00000000D+00  0.00000000D+00
  0.00000000D+00  0.00000000D+00  0.00000000D+00  0.00000000D+00  0.00000000D+00
  0.00000000D+00  0.00000000D+00  0.00000000D+00  0.00000000D+00  0.32652367D-04
  0.75282854D-04 -0.79668321D-04  0.00000000D+00  0.00000000D+00  0.00000000D+00
  0.00000000D+00  0.00000000D+00  0.00000000D+00  0.00000000D+00  0.00000000D+00
  0.00000000D+00  0.21080377D-04  0.00000000D+00  0.00000000D+00  0.00000000D+00
  0.98121350D-04  0.98121350D-04  0.98121350D-04  0.00000000D+00  0.00000000D+00
  0.00000000D+00
MO    2     MO 0.0        OCC NO =    2.0000000  ORB. ENERGY =  -14.489554
 -0.88908654D+00 -0.16418431D+01 -0.26637291D+01 -0.35429713D+01 -0.30691762D+01
 -0.96267628D+00 -0.22991195D+00 -0.10359989D+01 -0.16305147D+01  0.33772959D+00
  0.19477449D+01  0.68722305D+00  0.00000000D+00  0.00000000D+00  0.00000000D+00
  0.00000000D+00  0.00000000D+00  0.00000000D+00  0.00000000D+00  0.00000000D+00
  0.00000000D+00  0.00000000D+00  0.00000000D+00  0.00000000D+00  0.00000000D+00
  0.00000000D+00  0.00000000D+00  0.00000000D+00  0.00000000D+00  0.00000000D+00
 -0.64172503D-03 -0.47378995D-02  0.37253466D-04  0.36828206D-02  0.18391647D-02
  0.12278217D-03  0.00000000D+00  0.00000000D+00  0.00000000D+00  0.00000000D+00
  0.00000000D+00  0.00000000D+00  0.00000000D+00  0.00000000D+00  0.00000000D+00
  0.00000000D+00  0.00000000D+00  0.00000000D+00  0.00000000D+00  0.00000000D+00
  0.00000000D+00  0.00000000D+00  0.00000000D+00  0.00000000D+00 -0.23466116D-04
 -0.54103160D-04  0.57254842D-04  0.00000000D+00  0.00000000D+00  0.00000000D+00
  0.00000000D+00  0.00000000D+00  0.00000000D+00  0.00000000D+00  0.00000000D+00
  0.00000000D+00 -0.13317904D-04  0.00000000D+00  0.00000000D+00  0.00000000D+00
 -0.13551418D-03 -0.13551418D-03 -0.13551418D-03  0.00000000D+00  0.00000000D+00
  0.00000000D+00
MO    3     MO 0.0        OCC NO =    2.0000000  ORB. ENERGY =  -11.519575
  0.00000000D+00  0.00000000D+00  0.00000000D+00  0.00000000D+00  0.00000000D+00
  0.00000000D+00  0.00000000D+00  0.00000000D+00  0.00000000D+00  0.00000000D+00
  0.00000000D+00  0.00000000D+00  0.18112906D+02  0.23063165D+02  0.23855833D+02
  0.17274065D+02  0.73917224D+01  0.11386514D+01  0.00000000D+00  0.00000000D+00
  0.00000000D+00  0.00000000D+00  0.00000000D+00  0.00000000D+00  0.00000000D+00
  0.00000000D+00  0.00000000D+00  0.00000000D+00  0.00000000D+00  0.00000000D+00
  0.00000000D+00  0.00000000D+00  0.00000000D+00  0.00000000D+00  0.00000000D+00
  0.00000000D+00 -0.31860568D-02 -0.47473326D-03  0.48412581D-02  0.37776480D-02
  0.12701035D-02  0.11866336D-03  0.00000000D+00  0.00000000D+00  0.00000000D+00
  0.00000000D+00  0.00000000D+00  0.00000000D+00  0.00000000D+00  0.00000000D+00
  0.00000000D+00  0.00000000D+00  0.00000000D+00  0.00000000D+00  0.00000000D+00
  0.00000000D+00  0.00000000D+00 -0.50188633D-04  0.15813978D-04 -0.41740757D-04
  0.00000000D+00  0.00000000D+00  0.00000000D+00  0.00000000D+00  0.00000000D+00
  0.00000000D+00  0.00000000D+00  0.75572924D-05  0.00000000D+00  0.00000000D+00
  0.00000000D+00  0.00000000D+00  0.00000000D+00  0.00000000D+00  0.00000000D+00
  0.00000000D+00
MO    4     MO 0.0        OCC NO =    2.0000000  ORB. ENERGY =  -11.519575
  0.00000000D+00  0.00000000D+00  0.00000000D+00  0.00000000D+00  0.00000000D+00
  0.00000000D+00  0.00000000D+00  0.00000000D+00  0.00000000D+00  0.00000000D+00
  0.00000000D+00  0.00000000D+00  0.00000000D+00  0.00000000D+00  0.00000000D+00
  0.00000000D+00  0.00000000D+00  0.00000000D+00  0.18112906D+02  0.23063165D+02
  0.23855833D+02  0.17274065D+02  0.73917224D+01  0.11386514D+01  0.00000000D+00
  0.00000000D+00  0.00000000D+00  0.00000000D+00  0.00000000D+00  0.00000000D+00
  0.00000000D+00  0.00000000D+00  0.00000000D+00  0.00000000D+00  0.00000000D+00
  0.00000000D+00  0.00000000D+00  0.00000000D+00  0.00000000D+00  0.00000000D+00
  0.00000000D+00  0.00000000D+00 -0.31860568D-02 -0.47473326D-03  0.48412581D-02
  0.37776480D-02  0.12701035D-02  0.11866336D-03  0.00000000D+00  0.00000000D+00
  0.00000000D+00  0.00000000D+00  0.00000000D+00  0.00000000D+00  0.00000000D+00
  0.00000000D+00  0.00000000D+00  0.00000000D+00  0.00000000D+00  0.00000000D+00
 -0.50188633D-04  0.15813978D-04 -0.41740757D-04  0.00000000D+00  0.00000000D+00
  0.00000000D+00  0.00000000D+00  0.00000000D+00  0.75572924D-05  0.00000000D+00
  0.00000000D+00  0.00000000D+00  0.00000000D+00  0.00000000D+00  0.00000000D+00
  0.00000000D+00
MO    5     MO 0.0        OCC NO =    2.0000000  ORB. ENERGY =  -11.519575
  0.00000000D+00  0.00000000D+00  0.00000000D+00  0.00000000D+00  0.00000000D+00
  0.00000000D+00  0.00000000D+00  0.00000000D+00  0.00000000D+00  0.00000000D+00
  0.00000000D+00  0.00000000D+00  0.00000000D+00  0.00000000D+00  0.00000000D+00
  0.00000000D+00  0.00000000D+00  0.00000000D+00  0.00000000D+00  0.00000000D+00
  0.00000000D+00  0.00000000D+00  0.00000000D+00  0.00000000D+00  0.18112906D+02
  0.23063165D+02  0.23855833D+02  0.17274065D+02  0.73917224D+01  0.11386514D+01
  0.00000000D+00  0.00000000D+00  0.00000000D+00  0.00000000D+00  0.00000000D+00
  0.00000000D+00  0.00000000D+00  0.00000000D+00  0.00000000D+00  0.00000000D+00
  0.00000000D+00  0.00000000D+00  0.00000000D+00  0.00000000D+00  0.00000000D+00
  0.00000000D+00  0.00000000D+00  0.00000000D+00 -0.31860568D-02 -0.47473326D-03
  0.48412581D-02  0.37776480D-02  0.12701035D-02  0.11866336D-03  0.00000000D+00
  0.00000000D+00  0.00000000D+00  0.00000000D+00  0.00000000D+00  0.00000000D+00
  0.00000000D+00  0.00000000D+00  0.00000000D+00 -0.50188633D-04  0.15813978D-04
 -0.41740757D-04  0.00000000D+00  0.00000000D+00  0.00000000D+00  0.75572924D-05
  0.00000000D+00  0.00000000D+00  0.00000000D+00  0.00000000D+00  0.00000000D+00
  0.00000000D+00
MO    6     MO 0.0        OCC NO =    2.0000000  ORB. ENERGY =   -1.747903
 -0.29072981D+00 -0.53687994D+00 -0.87103496D+00 -0.11585457D+01 -0.10036155D+01
 -0.31479353D+00 -0.89141584D-01 -0.40167803D+00 -0.63218400D+00  0.13094469D+00
  0.75518068D+00  0.26645048D+00  0.00000000D+00  0.00000000D+00  0.00000000D+00
  0.00000000D+00  0.00000000D+00  0.00000000D+00  0.00000000D+00  0.00000000D+00
  0.00000000D+00  0.00000000D+00  0.00000000D+00  0.00000000D+00  0.00000000D+00
  0.00000000D+00  0.00000000D+00  0.00000000D+00  0.00000000D+00  0.00000000D+00
  0.62148671D-01  0.45884786D+00 -0.36078589D-02 -0.35666741D+00 -0.17811623D+00
 -0.11890994D-01  0.00000000D+00  0.00000000D+00  0.00000000D+00  0.00000000D+00
  0.00000000D+00  0.00000000D+00  0.00000000D+00  0.00000000D+00  0.00000000D+00
  0.00000000D+00  0.00000000D+00  0.00000000D+00  0.00000000D+00  0.00000000D+00
  0.00000000D+00  0.00000000D+00  0.00000000D+00  0.00000000D+00 -0.47481359D-04
 -0.10947238D-03  0.11584949D-03  0.00000000D+00  0.00000000D+00  0.00000000D+00
  0.00000000D+00  0.00000000D+00  0.00000000D+00  0.00000000D+00  0.00000000D+00
  0.00000000D+00 -0.32913738D-04  0.00000000D+00  0.00000000D+00  0.00000000D+00
 -0.14958828D-04 -0.14958828D-04 -0.14958828D-04  0.00000000D+00  0.00000000D+00
  0.00000000D+00
MO    7     MO 0.0        OCC NO =    2.0000000  ORB. ENERGY =   -0.954027
  0.00000000D+00  0.00000000D+00  0.00000000D+00  0.00000000D+00  0.00000000D+00
  0.00000000D+00  0.00000000D+00  0.00000000D+00  0.00000000D+00  0.00000000D+00
  0.00000000D+00  0.00000000D+00  0.00000000D+00  0.00000000D+00  0.00000000D+00
  0.00000000D+00  0.00000000D+00  0.00000000D+00 -0.57442427D+01 -0.73141448D+01
 -0.75655278D+01 -0.54782164D+01 -0.23441764D+01 -0.36110659D+00  0.00000000D+00
  0.00000000D+00  0.00000000D+00  0.00000000D+00  0.00000000D+00  0.00000000D+00
  0.00000000D+00  0.00000000D+00  0.00000000D+00  0.00000000D+00  0.00000000D+00
  0.00000000D+00  0.00000000D+00  0.00000000D+00  0.00000000D+00  0.00000000D+00
  0.00000000D+00  0.00000000D+00 -0.40044579D+00 -0.59667779D-01  0.60848301D+00
  0.47480109D+00  0.15963544D+00  0.14914437D-01  0.00000000D+00  0.00000000D+00
  0.00000000D+00  0.00000000D+00  0.00000000D+00  0.00000000D+00  0.00000000D+00
  0.00000000D+00  0.00000000D+00  0.00000000D+00  0.00000000D+00  0.00000000D+00
  0.64264440D-05 -0.20249136D-05  0.53447290D-05  0.00000000D+00  0.00000000D+00
  0.00000000D+00  0.00000000D+00  0.00000000D+00  0.80386814D-05  0.00000000D+00
  0.00000000D+00  0.00000000D+00  0.00000000D+00  0.00000000D+00  0.00000000D+00
  0.00000000D+00
MO    8     MO 0.0        OCC NO =    2.0000000  ORB. ENERGY =   -0.954027
  0.00000000D+00  0.00000000D+00  0.00000000D+00  0.00000000D+00  0.00000000D+00
  0.00000000D+00  0.00000000D+00  0.00000000D+00  0.00000000D+00  0.00000000D+00
  0.00000000D+00  0.00000000D+00 -0.57442427D+01 -0.73141448D+01 -0.75655278D+01
 -0.54782164D+01 -0.23441764D+01 -0.36110659D+00  0.00000000D+00  0.00000000D+00
  0.00000000D+00  0.00000000D+00  0.00000000D+00  0.00000000D+00  0.00000000D+00
  0.00000000D+00  0.00000000D+00  0.00000000D+00  0.00000000D+00  0.00000000D+00
  0.00000000D+00  0.00000000D+00  0.00000000D+00  0.00000000D+00  0.00000000D+00
  0.00000000D+00 -0.40044579D+00 -0.59667779D-01  0.60848301D+00  0.47480109D+00
  0.15963544D+00  0.14914437D-01  0.00000000D+00  0.00000000D+00  0.00000000D+00
  0.00000000D+00  0.00000000D+00  0.00000000D+00  0.00000000D+00  0.00000000D+00
  0.00000000D+00  0.00000000D+00  0.00000000D+00  0.00000000D+00  0.00000000D+00
  0.00000000D+00  0.00000000D+00  0.64264440D-05 -0.20249136D-05  0.53447290D-05
  0.00000000D+00  0.00000000D+00  0.00000000D+00  0.00000000D+00  0.00000000D+00
  0.00000000D+00  0.00000000D+00  0.80386814D-05  0.00000000D+00  0.00000000D+00
  0.00000000D+00  0.00000000D+00  0.00000000D+00  0.00000000D+00  0.00000000D+00
  0.00000000D+00
MO    9     MO 0.0        OCC NO =    2.0000000  ORB. ENERGY =   -0.954027
  0.00000000D+00  0.00000000D+00  0.00000000D+00  0.00000000D+00  0.00000000D+00
  0.00000000D+00  0.00000000D+00  0.00000000D+00  0.00000000D+00  0.00000000D+00
  0.00000000D+00  0.00000000D+00  0.00000000D+00  0.00000000D+00  0.00000000D+00
  0.00000000D+00  0.00000000D+00  0.00000000D+00  0.00000000D+00  0.00000000D+00
  0.00000000D+00  0.00000000D+00  0.00000000D+00  0.00000000D+00 -0.57442427D+01
 -0.73141448D+01 -0.75655278D+01 -0.54782164D+01 -0.23441764D+01 -0.36110659D+00
  0.00000000D+00  0.00000000D+00  0.00000000D+00  0.00000000D+00  0.00000000D+00
  0.00000000D+00  0.00000000D+00  0.00000000D+00  0.00000000D+00  0.00000000D+00
  0.00000000D+00  0.00000000D+00  0.00000000D+00  0.00000000D+00  0.00000000D+00
  0.00000000D+00  0.00000000D+00  0.00000000D+00 -0.40044579D+00 -0.59667779D-01
  0.60848301D+00  0.47480109D+00  0.15963544D+00  0.14914437D-01  0.00000000D+00
  0.00000000D+00  0.00000000D+00  0.00000000D+00  0.00000000D+00  0.00000000D+00
  0.00000000D+00  0.00000000D+00  0.00000000D+00  0.64264440D-05 -0.20249136D-05
  0.53447290D-05  0.00000000D+00  0.00000000D+00  0.00000000D+00  0.80386814D-05
  0.00000000D+00  0.00000000D+00  0.00000000D+00  0.00000000D+00  0.00000000D+00
  0.00000000D+00
MO   10     MO 0.0        OCC NO =    1.0000000  ORB. ENERGY =   -0.040841
 -0.55982402D-01 -0.10338062D+00 -0.16772490D+00 -0.22308744D+00 -0.19325436D+00
 -0.60616068D-01 -0.17602122D-01 -0.79316357D-01 -0.12483265D+00  0.25856670D-01
  0.14911989D+00  0.52613985D-01  0.00000000D+00  0.00000000D+00  0.00000000D+00
  0.00000000D+00  0.00000000D+00  0.00000000D+00  0.00000000D+00  0.00000000D+00
  0.00000000D+00  0.00000000D+00  0.00000000D+00  0.00000000D+00  0.00000000D+00
  0.00000000D+00  0.00000000D+00  0.00000000D+00  0.00000000D+00  0.00000000D+00
  0.13864627D-01  0.10236348D+00 -0.80487027D-03 -0.79568243D-01 -0.39735606D-01
 -0.26527389D-02  0.00000000D+00  0.00000000D+00  0.00000000D+00  0.00000000D+00
  0.00000000D+00  0.00000000D+00  0.00000000D+00  0.00000000D+00  0.00000000D+00
  0.00000000D+00  0.00000000D+00  0.00000000D+00  0.00000000D+00  0.00000000D+00
  0.00000000D+00  0.00000000D+00  0.00000000D+00  0.00000000D+00 -0.17750149D-01
 -0.40924502D-01  0.43308485D-01  0.00000000D+00  0.00000000D+00  0.00000000D+00
  0.00000000D+00  0.00000000D+00  0.00000000D+00  0.00000000D+00  0.00000000D+00
  0.00000000D+00  0.14536552D-01  0.00000000D+00  0.00000000D+00  0.00000000D+00
 -0.74156461D-04 -0.74156461D-04 -0.74156461D-04  0.00000000D+00  0.00000000D+00
  0.00000000D+00
END DATA
 THE  HF ENERGY =   -599.119267655683 THE VIRIAL(-V/T)=   2.00016519
