 Generated by Multiwfn
GAUSSIAN             18 MOL ORBITALS     83 PRIMITIVES        1 NUCLEI
  Kr   1    (CENTRE  1)   0.00000000  0.00000000  0.00000000  CHARGE = 36.0
CENTRE ASSIGNMENTS    1  1  1  1  1  1  1  1  1  1  1  1  1  1  1  1  1  1  1  1
CENTRE ASSIGNMENTS    1  1  1  1  1  1  1  1  1  1  1  1  1  1  1  1  1  1  1  1
CENTRE ASSIGNMENTS    1  1  1  1  1  1  1  1  1  1  1  1  1  1  1  1  1  1  1  1
CENTRE ASSIGNMENTS    1  1  1  1  1  1  1  1  1  1  1  1  1  1  1  1  1  1  1  1
CENTRE ASSIGNMENTS    1  1  1
TYPE ASSIGNMENTS      1  1  1  1  1  1  1  1  1  1  1  1  1  1  2  2  2  2  2  2
TYPE ASSIGNMENTS      3  3  3  3  3  3  4  4  4  4  4  4  2  2  2  3  3  3  4  4
TYPE ASSIGNMENTS      4  2  3  4  2  3  4  5  5  5  5  5  6  6  6  6  6  7  7  7
TYPE ASSIGNMENTS      7  7  8  8  8  8  8  9  9  9  9  9 10 10 10 10 10  5  6  7
TYPE ASSIGNMENTS      8  9 10
EXPONENTS  0.6057000D+06 0.9030000D+05 0.2092000D+05 0.5889000D+04 0.1950000D+04
EXPONENTS  0.7182000D+03 0.2854000D+03 0.1186000D+03 0.3816000D+02 0.1645000D+02
EXPONENTS  0.5211000D+01 0.2291000D+01 0.4837000D+00 0.1855000D+00 0.4678000D+04
EXPONENTS  0.1120000D+04 0.3571000D+03 0.1314000D+03 0.5286000D+02 0.2270000D+02
EXPONENTS  0.4678000D+04 0.1120000D+04 0.3571000D+03 0.1314000D+03 0.5286000D+02
EXPONENTS  0.2270000D+02 0.4678000D+04 0.1120000D+04 0.3571000D+03 0.1314000D+03
EXPONENTS  0.5286000D+02 0.2270000D+02 0.9547000D+01 0.4167000D+01 0.1811000D+01
EXPONENTS  0.9547000D+01 0.4167000D+01 0.1811000D+01 0.9547000D+01 0.4167000D+01
EXPONENTS  0.1811000D+01 0.5337000D+00 0.5337000D+00 0.5337000D+00 0.1654000D+00
EXPONENTS  0.1654000D+00 0.1654000D+00 0.1256000D+03 0.3531000D+02 0.1215000D+02
EXPONENTS  0.4350000D+01 0.1494000D+01 0.1256000D+03 0.3531000D+02 0.1215000D+02
EXPONENTS  0.4350000D+01 0.1494000D+01 0.1256000D+03 0.3531000D+02 0.1215000D+02
EXPONENTS  0.4350000D+01 0.1494000D+01 0.1256000D+03 0.3531000D+02 0.1215000D+02
EXPONENTS  0.4350000D+01 0.1494000D+01 0.1256000D+03 0.3531000D+02 0.1215000D+02
EXPONENTS  0.4350000D+01 0.1494000D+01 0.1256000D+03 0.3531000D+02 0.1215000D+02
EXPONENTS  0.4350000D+01 0.1494000D+01 0.3180000D+00 0.3180000D+00 0.3180000D+00
EXPONENTS  0.3180000D+00 0.3180000D+00 0.3180000D+00
MO    1     MO 0.0        OCC NO =    2.0000000  ORB. ENERGY = -520.165716
  0.33821630D+01  0.61509641D+01  0.10658675D+02  0.16803489D+02  0.23341845D+02
  0.26892942D+02  0.21357628D+02  0.69383112D+01  0.89539519D-01  0.12758361D+00
 -0.89382021D-01 -0.57819592D-01 -0.40305115D-02 -0.54542236D-02  0.00000000D+00
  0.00000000D+00  0.00000000D+00  0.00000000D+00  0.00000000D+00  0.00000000D+00
  0.00000000D+00  0.00000000D+00  0.00000000D+00  0.00000000D+00  0.00000000D+00
  0.00000000D+00  0.00000000D+00  0.00000000D+00  0.00000000D+00  0.00000000D+00
  0.00000000D+00  0.00000000D+00  0.00000000D+00  0.00000000D+00  0.00000000D+00
  0.00000000D+00  0.00000000D+00  0.00000000D+00  0.00000000D+00  0.00000000D+00
  0.00000000D+00  0.00000000D+00  0.00000000D+00  0.00000000D+00  0.00000000D+00
  0.00000000D+00  0.00000000D+00  0.54365555D+01  0.38728531D+01  0.17417944D+01
  0.39653201D+00  0.31977989D-01  0.54365555D+01  0.38728531D+01  0.17417944D+01
  0.39653201D+00  0.31977989D-01  0.54365555D+01  0.38728531D+01  0.17417944D+01
  0.39653201D+00  0.31977989D-01  0.00000000D+00  0.00000000D+00  0.00000000D+00
  0.00000000D+00  0.00000000D+00  0.00000000D+00  0.00000000D+00  0.00000000D+00
  0.00000000D+00  0.00000000D+00  0.00000000D+00  0.00000000D+00  0.00000000D+00
  0.00000000D+00  0.00000000D+00  0.23436441D-02  0.23436441D-02  0.23436441D-02
  0.00000000D+00  0.00000000D+00  0.00000000D+00
MO    2     MO 0.0        OCC NO =    2.0000000  ORB. ENERGY =  -69.142456
 -0.14558679D+01 -0.26477113D+01 -0.45880765D+01 -0.72331406D+01 -0.10047607D+02
 -0.11576193D+02 -0.91934910D+01 -0.29866286D+01  0.35115360D+01  0.50035386D+01
 -0.53124874D+00 -0.40752138D+00 -0.29008399D-01 -0.42575860D-01  0.00000000D+00
  0.00000000D+00  0.00000000D+00  0.00000000D+00  0.00000000D+00  0.00000000D+00
  0.00000000D+00  0.00000000D+00  0.00000000D+00  0.00000000D+00  0.00000000D+00
  0.00000000D+00  0.00000000D+00  0.00000000D+00  0.00000000D+00  0.00000000D+00
  0.00000000D+00  0.00000000D+00  0.00000000D+00  0.00000000D+00  0.00000000D+00
  0.00000000D+00  0.00000000D+00  0.00000000D+00  0.00000000D+00  0.00000000D+00
  0.00000000D+00  0.00000000D+00  0.00000000D+00  0.00000000D+00  0.00000000D+00
  0.00000000D+00  0.00000000D+00  0.39674365D+02  0.28262930D+02  0.12711097D+02
  0.28937727D+01  0.23336585D+00  0.39674365D+02  0.28262930D+02  0.12711097D+02
  0.28937727D+01  0.23336585D+00  0.39674365D+02  0.28262930D+02  0.12711097D+02
  0.28937727D+01  0.23336585D+00  0.00000000D+00  0.00000000D+00  0.00000000D+00
  0.00000000D+00  0.00000000D+00  0.00000000D+00  0.00000000D+00  0.00000000D+00
  0.00000000D+00  0.00000000D+00  0.00000000D+00  0.00000000D+00  0.00000000D+00
  0.00000000D+00  0.00000000D+00  0.18215907D-01  0.18215907D-01  0.18215907D-01
  0.00000000D+00  0.00000000D+00  0.00000000D+00
MO    3     MO 0.0        OCC NO =    2.0000000  ORB. ENERGY =  -63.091802
  0.00000000D+00  0.00000000D+00  0.00000000D+00  0.00000000D+00  0.00000000D+00
  0.00000000D+00  0.00000000D+00  0.00000000D+00  0.00000000D+00  0.00000000D+00
  0.00000000D+00  0.00000000D+00  0.00000000D+00  0.00000000D+00  0.00000000D+00
  0.00000000D+00  0.00000000D+00  0.00000000D+00  0.00000000D+00  0.00000000D+00
  0.00000000D+00  0.00000000D+00  0.00000000D+00  0.00000000D+00  0.00000000D+00
  0.00000000D+00  0.74147711D+02  0.10924383D+03  0.12903415D+03  0.13867408D+03
  0.80824442D+02  0.31180146D+02  0.00000000D+00  0.00000000D+00  0.00000000D+00
  0.00000000D+00  0.00000000D+00  0.00000000D+00  0.44262933D+00  0.28840544D+00
  0.51665337D-01  0.00000000D+00  0.00000000D+00 -0.11818448D-01  0.00000000D+00
  0.00000000D+00  0.11156665D-02  0.00000000D+00  0.00000000D+00  0.00000000D+00
  0.00000000D+00  0.00000000D+00  0.00000000D+00  0.00000000D+00  0.00000000D+00
  0.00000000D+00  0.00000000D+00  0.00000000D+00  0.00000000D+00  0.00000000D+00
  0.00000000D+00  0.00000000D+00  0.00000000D+00  0.00000000D+00  0.00000000D+00
  0.00000000D+00  0.00000000D+00  0.00000000D+00  0.00000000D+00  0.00000000D+00
  0.00000000D+00  0.00000000D+00  0.00000000D+00  0.00000000D+00  0.00000000D+00
  0.00000000D+00  0.00000000D+00  0.00000000D+00  0.00000000D+00  0.00000000D+00
  0.00000000D+00  0.00000000D+00  0.00000000D+00
MO    4     MO 0.0        OCC NO =    2.0000000  ORB. ENERGY =  -63.091802
  0.00000000D+00  0.00000000D+00  0.00000000D+00  0.00000000D+00  0.00000000D+00
  0.00000000D+00  0.00000000D+00  0.00000000D+00  0.00000000D+00  0.00000000D+00
  0.00000000D+00  0.00000000D+00  0.00000000D+00  0.00000000D+00  0.00000000D+00
  0.00000000D+00  0.00000000D+00  0.00000000D+00  0.00000000D+00  0.00000000D+00
  0.74147711D+02  0.10924383D+03  0.12903415D+03  0.13867408D+03  0.80824442D+02
  0.31180146D+02  0.00000000D+00  0.00000000D+00  0.00000000D+00  0.00000000D+00
  0.00000000D+00  0.00000000D+00  0.00000000D+00  0.00000000D+00  0.00000000D+00
  0.44262933D+00  0.28840544D+00  0.51665337D-01  0.00000000D+00  0.00000000D+00
  0.00000000D+00  0.00000000D+00 -0.11818448D-01  0.00000000D+00  0.00000000D+00
  0.11156665D-02  0.00000000D+00  0.00000000D+00  0.00000000D+00  0.00000000D+00
  0.00000000D+00  0.00000000D+00  0.00000000D+00  0.00000000D+00  0.00000000D+00
  0.00000000D+00  0.00000000D+00  0.00000000D+00  0.00000000D+00  0.00000000D+00
  0.00000000D+00  0.00000000D+00  0.00000000D+00  0.00000000D+00  0.00000000D+00
  0.00000000D+00  0.00000000D+00  0.00000000D+00  0.00000000D+00  0.00000000D+00
  0.00000000D+00  0.00000000D+00  0.00000000D+00  0.00000000D+00  0.00000000D+00
  0.00000000D+00  0.00000000D+00  0.00000000D+00  0.00000000D+00  0.00000000D+00
  0.00000000D+00  0.00000000D+00  0.00000000D+00
MO    5     MO 0.0        OCC NO =    2.0000000  ORB. ENERGY =  -63.091802
  0.00000000D+00  0.00000000D+00  0.00000000D+00  0.00000000D+00  0.00000000D+00
  0.00000000D+00  0.00000000D+00  0.00000000D+00  0.00000000D+00  0.00000000D+00
  0.00000000D+00  0.00000000D+00  0.00000000D+00  0.00000000D+00  0.74147711D+02
  0.10924383D+03  0.12903415D+03  0.13867408D+03  0.80824442D+02  0.31180146D+02
  0.00000000D+00  0.00000000D+00  0.00000000D+00  0.00000000D+00  0.00000000D+00
  0.00000000D+00  0.00000000D+00  0.00000000D+00  0.00000000D+00  0.00000000D+00
  0.00000000D+00  0.00000000D+00  0.44262933D+00  0.28840544D+00  0.51665337D-01
  0.00000000D+00  0.00000000D+00  0.00000000D+00  0.00000000D+00  0.00000000D+00
  0.00000000D+00 -0.11818448D-01  0.00000000D+00  0.00000000D+00  0.11156665D-02
  0.00000000D+00  0.00000000D+00  0.00000000D+00  0.00000000D+00  0.00000000D+00
  0.00000000D+00  0.00000000D+00  0.00000000D+00  0.00000000D+00  0.00000000D+00
  0.00000000D+00  0.00000000D+00  0.00000000D+00  0.00000000D+00  0.00000000D+00
  0.00000000D+00  0.00000000D+00  0.00000000D+00  0.00000000D+00  0.00000000D+00
  0.00000000D+00  0.00000000D+00  0.00000000D+00  0.00000000D+00  0.00000000D+00
  0.00000000D+00  0.00000000D+00  0.00000000D+00  0.00000000D+00  0.00000000D+00
  0.00000000D+00  0.00000000D+00  0.00000000D+00  0.00000000D+00  0.00000000D+00
  0.00000000D+00  0.00000000D+00  0.00000000D+00
MO    6     MO 0.0        OCC NO =    2.0000000  ORB. ENERGY =  -10.715884
  0.58502081D+00  0.10639470D+01  0.18436564D+01  0.29065396D+01  0.40374947D+01
  0.46517365D+01  0.36942799D+01  0.12001363D+01 -0.28990169D+01 -0.41307687D+01
  0.20244382D+01  0.16890327D+01  0.52891356D-01  0.70571172D-01  0.00000000D+00
  0.00000000D+00  0.00000000D+00  0.00000000D+00  0.00000000D+00  0.00000000D+00
  0.00000000D+00  0.00000000D+00  0.00000000D+00  0.00000000D+00  0.00000000D+00
  0.00000000D+00  0.00000000D+00  0.00000000D+00  0.00000000D+00  0.00000000D+00
  0.00000000D+00  0.00000000D+00  0.00000000D+00  0.00000000D+00  0.00000000D+00
  0.00000000D+00  0.00000000D+00  0.00000000D+00  0.00000000D+00  0.00000000D+00
  0.00000000D+00  0.00000000D+00  0.00000000D+00  0.00000000D+00  0.00000000D+00
  0.00000000D+00  0.00000000D+00 -0.59984975D+02 -0.42731652D+02 -0.19218325D+02
 -0.43751899D+01 -0.35283349D+00 -0.59984975D+02 -0.42731652D+02 -0.19218325D+02
 -0.43751899D+01 -0.35283349D+00 -0.59984975D+02 -0.42731652D+02 -0.19218325D+02
 -0.43751899D+01 -0.35283349D+00  0.00000000D+00  0.00000000D+00  0.00000000D+00
  0.00000000D+00  0.00000000D+00  0.00000000D+00  0.00000000D+00  0.00000000D+00
  0.00000000D+00  0.00000000D+00  0.00000000D+00  0.00000000D+00  0.00000000D+00
  0.00000000D+00  0.00000000D+00 -0.30137178D-01 -0.30137178D-01 -0.30137178D-01
  0.00000000D+00  0.00000000D+00  0.00000000D+00
MO    7     MO 0.0        OCC NO =    2.0000000  ORB. ENERGY =   -8.352731
  0.00000000D+00  0.00000000D+00  0.00000000D+00  0.00000000D+00  0.00000000D+00
  0.00000000D+00  0.00000000D+00  0.00000000D+00  0.00000000D+00  0.00000000D+00
  0.00000000D+00  0.00000000D+00  0.00000000D+00  0.00000000D+00  0.00000000D+00
  0.00000000D+00  0.00000000D+00  0.00000000D+00  0.00000000D+00  0.00000000D+00
  0.00000000D+00  0.00000000D+00  0.00000000D+00  0.00000000D+00  0.00000000D+00
  0.00000000D+00 -0.33389384D+02 -0.49193483D+02 -0.58105243D+02 -0.62446193D+02
 -0.36395977D+02 -0.14040701D+02  0.00000000D+00  0.00000000D+00  0.00000000D+00
  0.00000000D+00  0.00000000D+00  0.00000000D+00  0.73876087D+01  0.48135683D+01
  0.86230908D+00  0.00000000D+00  0.00000000D+00  0.13448032D-01  0.00000000D+00
  0.00000000D+00 -0.58069048D-03  0.00000000D+00  0.00000000D+00  0.00000000D+00
  0.00000000D+00  0.00000000D+00  0.00000000D+00  0.00000000D+00  0.00000000D+00
  0.00000000D+00  0.00000000D+00  0.00000000D+00  0.00000000D+00  0.00000000D+00
  0.00000000D+00  0.00000000D+00  0.00000000D+00  0.00000000D+00  0.00000000D+00
  0.00000000D+00  0.00000000D+00  0.00000000D+00  0.00000000D+00  0.00000000D+00
  0.00000000D+00  0.00000000D+00  0.00000000D+00  0.00000000D+00  0.00000000D+00
  0.00000000D+00  0.00000000D+00  0.00000000D+00  0.00000000D+00  0.00000000D+00
  0.00000000D+00  0.00000000D+00  0.00000000D+00
MO    8     MO 0.0        OCC NO =    2.0000000  ORB. ENERGY =   -8.352731
  0.00000000D+00  0.00000000D+00  0.00000000D+00  0.00000000D+00  0.00000000D+00
  0.00000000D+00  0.00000000D+00  0.00000000D+00  0.00000000D+00  0.00000000D+00
  0.00000000D+00  0.00000000D+00  0.00000000D+00  0.00000000D+00  0.00000000D+00
  0.00000000D+00  0.00000000D+00  0.00000000D+00  0.00000000D+00  0.00000000D+00
 -0.33389384D+02 -0.49193483D+02 -0.58105243D+02 -0.62446193D+02 -0.36395977D+02
 -0.14040701D+02  0.00000000D+00  0.00000000D+00  0.00000000D+00  0.00000000D+00
  0.00000000D+00  0.00000000D+00  0.00000000D+00  0.00000000D+00  0.00000000D+00
  0.73876087D+01  0.48135683D+01  0.86230908D+00  0.00000000D+00  0.00000000D+00
  0.00000000D+00  0.00000000D+00  0.13448032D-01  0.00000000D+00  0.00000000D+00
 -0.58069048D-03  0.00000000D+00  0.00000000D+00  0.00000000D+00  0.00000000D+00
  0.00000000D+00  0.00000000D+00  0.00000000D+00  0.00000000D+00  0.00000000D+00
  0.00000000D+00  0.00000000D+00  0.00000000D+00  0.00000000D+00  0.00000000D+00
  0.00000000D+00  0.00000000D+00  0.00000000D+00  0.00000000D+00  0.00000000D+00
  0.00000000D+00  0.00000000D+00  0.00000000D+00  0.00000000D+00  0.00000000D+00
  0.00000000D+00  0.00000000D+00  0.00000000D+00  0.00000000D+00  0.00000000D+00
  0.00000000D+00  0.00000000D+00  0.00000000D+00  0.00000000D+00  0.00000000D+00
  0.00000000D+00  0.00000000D+00  0.00000000D+00
MO    9     MO 0.0        OCC NO =    2.0000000  ORB. ENERGY =   -8.352731
  0.00000000D+00  0.00000000D+00  0.00000000D+00  0.00000000D+00  0.00000000D+00
  0.00000000D+00  0.00000000D+00  0.00000000D+00  0.00000000D+00  0.00000000D+00
  0.00000000D+00  0.00000000D+00  0.00000000D+00  0.00000000D+00 -0.33389384D+02
 -0.49193483D+02 -0.58105243D+02 -0.62446193D+02 -0.36395977D+02 -0.14040701D+02
  0.00000000D+00  0.00000000D+00  0.00000000D+00  0.00000000D+00  0.00000000D+00
  0.00000000D+00  0.00000000D+00  0.00000000D+00  0.00000000D+00  0.00000000D+00
  0.00000000D+00  0.00000000D+00  0.73876087D+01  0.48135683D+01  0.86230908D+00
  0.00000000D+00  0.00000000D+00  0.00000000D+00  0.00000000D+00  0.00000000D+00
  0.00000000D+00  0.13448032D-01  0.00000000D+00  0.00000000D+00 -0.58069048D-03
  0.00000000D+00  0.00000000D+00  0.00000000D+00  0.00000000D+00  0.00000000D+00
  0.00000000D+00  0.00000000D+00  0.00000000D+00  0.00000000D+00  0.00000000D+00
  0.00000000D+00  0.00000000D+00  0.00000000D+00  0.00000000D+00  0.00000000D+00
  0.00000000D+00  0.00000000D+00  0.00000000D+00  0.00000000D+00  0.00000000D+00
  0.00000000D+00  0.00000000D+00  0.00000000D+00  0.00000000D+00  0.00000000D+00
  0.00000000D+00  0.00000000D+00  0.00000000D+00  0.00000000D+00  0.00000000D+00
  0.00000000D+00  0.00000000D+00  0.00000000D+00  0.00000000D+00  0.00000000D+00
  0.00000000D+00  0.00000000D+00  0.00000000D+00
MO   10     MO 0.0        OCC NO =    2.0000000  ORB. ENERGY =   -3.843396
  0.00000000D+00  0.00000000D+00  0.00000000D+00  0.00000000D+00  0.00000000D+00
  0.00000000D+00  0.00000000D+00  0.00000000D+00  0.00000000D+00  0.00000000D+00
  0.00000000D+00  0.00000000D+00  0.00000000D+00  0.00000000D+00  0.00000000D+00
  0.00000000D+00  0.00000000D+00  0.00000000D+00  0.00000000D+00  0.00000000D+00
  0.00000000D+00  0.00000000D+00  0.00000000D+00  0.00000000D+00  0.00000000D+00
  0.00000000D+00  0.00000000D+00  0.00000000D+00  0.00000000D+00  0.00000000D+00
  0.00000000D+00  0.00000000D+00  0.00000000D+00  0.00000000D+00  0.00000000D+00
  0.00000000D+00  0.00000000D+00  0.00000000D+00  0.00000000D+00  0.00000000D+00
  0.00000000D+00  0.00000000D+00  0.00000000D+00  0.00000000D+00  0.00000000D+00
  0.00000000D+00  0.00000000D+00  0.00000000D+00  0.00000000D+00  0.00000000D+00
  0.00000000D+00  0.00000000D+00  0.00000000D+00  0.00000000D+00  0.00000000D+00
  0.00000000D+00  0.00000000D+00  0.00000000D+00  0.00000000D+00  0.00000000D+00
  0.00000000D+00  0.00000000D+00  0.25708751D+03  0.18314209D+03  0.82367148D+02
  0.18751473D+02  0.15121967D+01  0.00000000D+00  0.00000000D+00  0.00000000D+00
  0.00000000D+00  0.00000000D+00  0.00000000D+00  0.00000000D+00  0.00000000D+00
  0.00000000D+00  0.00000000D+00  0.00000000D+00  0.00000000D+00  0.00000000D+00
  0.49756044D-02  0.00000000D+00  0.00000000D+00
MO   11     MO 0.0        OCC NO =    2.0000000  ORB. ENERGY =   -3.843396
  0.00000000D+00  0.00000000D+00  0.00000000D+00  0.00000000D+00  0.00000000D+00
  0.00000000D+00  0.00000000D+00  0.00000000D+00  0.00000000D+00  0.00000000D+00
  0.00000000D+00  0.00000000D+00  0.00000000D+00  0.00000000D+00  0.00000000D+00
  0.00000000D+00  0.00000000D+00  0.00000000D+00  0.00000000D+00  0.00000000D+00
  0.00000000D+00  0.00000000D+00  0.00000000D+00  0.00000000D+00  0.00000000D+00
  0.00000000D+00  0.00000000D+00  0.00000000D+00  0.00000000D+00  0.00000000D+00
  0.00000000D+00  0.00000000D+00  0.00000000D+00  0.00000000D+00  0.00000000D+00
  0.00000000D+00  0.00000000D+00  0.00000000D+00  0.00000000D+00  0.00000000D+00
  0.00000000D+00  0.00000000D+00  0.00000000D+00  0.00000000D+00  0.00000000D+00
  0.00000000D+00  0.00000000D+00  0.00000000D+00  0.00000000D+00  0.00000000D+00
  0.00000000D+00  0.00000000D+00  0.00000000D+00  0.00000000D+00  0.00000000D+00
  0.00000000D+00  0.00000000D+00  0.00000000D+00  0.00000000D+00  0.00000000D+00
  0.00000000D+00  0.00000000D+00  0.00000000D+00  0.00000000D+00  0.00000000D+00
  0.00000000D+00  0.00000000D+00  0.25708751D+03  0.18314209D+03  0.82367148D+02
  0.18751473D+02  0.15121967D+01  0.00000000D+00  0.00000000D+00  0.00000000D+00
  0.00000000D+00  0.00000000D+00  0.00000000D+00  0.00000000D+00  0.00000000D+00
  0.00000000D+00  0.49756044D-02  0.00000000D+00
MO   12     MO 0.0        OCC NO =    2.0000000  ORB. ENERGY =   -3.843396
  0.00000000D+00  0.00000000D+00  0.00000000D+00  0.00000000D+00  0.00000000D+00
  0.00000000D+00  0.00000000D+00  0.00000000D+00  0.00000000D+00  0.00000000D+00
  0.00000000D+00  0.00000000D+00  0.00000000D+00  0.00000000D+00  0.00000000D+00
  0.00000000D+00  0.00000000D+00  0.00000000D+00  0.00000000D+00  0.00000000D+00
  0.00000000D+00  0.00000000D+00  0.00000000D+00  0.00000000D+00  0.00000000D+00
  0.00000000D+00  0.00000000D+00  0.00000000D+00  0.00000000D+00  0.00000000D+00
  0.00000000D+00  0.00000000D+00  0.00000000D+00  0.00000000D+00  0.00000000D+00
  0.00000000D+00  0.00000000D+00  0.00000000D+00  0.00000000D+00  0.00000000D+00
  0.00000000D+00  0.00000000D+00  0.00000000D+00  0.00000000D+00  0.00000000D+00
  0.00000000D+00  0.00000000D+00  0.00000000D+00  0.00000000D+00  0.00000000D+00
  0.00000000D+00  0.00000000D+00  0.00000000D+00  0.00000000D+00  0.00000000D+00
  0.00000000D+00  0.00000000D+00  0.00000000D+00  0.00000000D+00  0.00000000D+00
  0.00000000D+00  0.00000000D+00  0.00000000D+00  0.00000000D+00  0.00000000D+00
  0.00000000D+00  0.00000000D+00  0.00000000D+00  0.00000000D+00  0.00000000D+00
  0.00000000D+00  0.00000000D+00  0.25708751D+03  0.18314209D+03  0.82367148D+02
  0.18751473D+02  0.15121967D+01  0.00000000D+00  0.00000000D+00  0.00000000D+00
  0.00000000D+00  0.00000000D+00  0.49756044D-02
MO   13     MO 0.0        OCC NO =    2.0000000  ORB. ENERGY =   -3.843396
 -0.33985359D-13 -0.61807407D-13 -0.10710273D-12 -0.16884834D-12 -0.23454842D-12
 -0.27023130D-12 -0.21461019D-12 -0.69718993D-13 -0.12667880D-12 -0.18050285D-12
  0.29162698D-12  0.30152648D-12 -0.26895974D-14  0.39944665D-13  0.00000000D+00
  0.00000000D+00  0.00000000D+00  0.00000000D+00  0.00000000D+00  0.00000000D+00
  0.00000000D+00  0.00000000D+00  0.00000000D+00  0.00000000D+00  0.00000000D+00
  0.00000000D+00  0.00000000D+00  0.00000000D+00  0.00000000D+00  0.00000000D+00
  0.00000000D+00  0.00000000D+00  0.00000000D+00  0.00000000D+00  0.00000000D+00
  0.00000000D+00  0.00000000D+00  0.00000000D+00  0.00000000D+00  0.00000000D+00
  0.00000000D+00  0.00000000D+00  0.00000000D+00  0.00000000D+00  0.00000000D+00
  0.00000000D+00  0.00000000D+00  0.14194149D+03  0.10111522D+03  0.45476015D+02
  0.10352942D+02  0.83490425D+00 -0.10856007D+03 -0.77335219D+02 -0.34781089D+02
 -0.79181649D+01 -0.63855372D+00 -0.33381416D+02 -0.23780006D+02 -0.10694927D+02
 -0.24347769D+01 -0.19635053D+00  0.00000000D+00  0.00000000D+00  0.00000000D+00
  0.00000000D+00  0.00000000D+00  0.00000000D+00  0.00000000D+00  0.00000000D+00
  0.00000000D+00  0.00000000D+00  0.00000000D+00  0.00000000D+00  0.00000000D+00
  0.00000000D+00  0.00000000D+00  0.27470984D-02 -0.21010432D-02 -0.64605519D-03
  0.00000000D+00  0.00000000D+00  0.00000000D+00
MO   14     MO 0.0        OCC NO =    2.0000000  ORB. ENERGY =   -3.843396
  0.51873903D-14  0.94340373D-14  0.16347736D-13  0.25772341D-13  0.35800540D-13
  0.41247033D-13  0.32757248D-13  0.10641630D-13  0.23687437D-13  0.33751898D-13
 -0.58368566D-13 -0.43786887D-13 -0.30643729D-13  0.26221309D-13  0.00000000D+00
  0.00000000D+00  0.00000000D+00  0.00000000D+00  0.00000000D+00  0.00000000D+00
  0.00000000D+00  0.00000000D+00  0.00000000D+00  0.00000000D+00  0.00000000D+00
  0.00000000D+00  0.00000000D+00  0.00000000D+00  0.00000000D+00  0.00000000D+00
  0.00000000D+00  0.00000000D+00  0.00000000D+00  0.00000000D+00  0.00000000D+00
  0.00000000D+00  0.00000000D+00  0.00000000D+00  0.00000000D+00  0.00000000D+00
  0.00000000D+00  0.00000000D+00  0.00000000D+00  0.00000000D+00  0.00000000D+00
  0.00000000D+00  0.00000000D+00 -0.43404416D+02 -0.30920117D+02 -0.13906152D+02
 -0.31658355D+01 -0.25530613D+00 -0.10122272D+03 -0.72108295D+02 -0.32430308D+02
 -0.73829929D+01 -0.59539522D+00  0.14462714D+03  0.10302841D+03  0.46336461D+02
  0.10548828D+02  0.85070135D+00  0.00000000D+00  0.00000000D+00  0.00000000D+00
  0.00000000D+00  0.00000000D+00  0.00000000D+00  0.00000000D+00  0.00000000D+00
  0.00000000D+00  0.00000000D+00  0.00000000D+00  0.00000000D+00  0.00000000D+00
  0.00000000D+00  0.00000000D+00 -0.84003772D-03 -0.19590381D-02  0.27990759D-02
  0.00000000D+00  0.00000000D+00  0.00000000D+00
MO   15     MO 0.0        OCC NO =    2.0000000  ORB. ENERGY =   -1.136738
  0.18463197D+00  0.33578057D+00  0.58185608D+00  0.91730093D+00  0.12742292D+01
  0.14680833D+01  0.11659110D+01  0.37876178D+00 -0.10633417D+01 -0.15151407D+01
  0.91412577D+00  0.10133027D+01 -0.27616724D+00 -0.73069884D-01  0.00000000D+00
  0.00000000D+00  0.00000000D+00  0.00000000D+00  0.00000000D+00  0.00000000D+00
  0.00000000D+00  0.00000000D+00  0.00000000D+00  0.00000000D+00  0.00000000D+00
  0.00000000D+00  0.00000000D+00  0.00000000D+00  0.00000000D+00  0.00000000D+00
  0.00000000D+00  0.00000000D+00  0.00000000D+00  0.00000000D+00  0.00000000D+00
  0.00000000D+00  0.00000000D+00  0.00000000D+00  0.00000000D+00  0.00000000D+00
  0.00000000D+00  0.00000000D+00  0.00000000D+00  0.00000000D+00  0.00000000D+00
  0.00000000D+00  0.00000000D+00 -0.25024916D+02 -0.17827065D+02 -0.80176241D+01
 -0.18252698D+01 -0.14719734D+00 -0.25024916D+02 -0.17827065D+02 -0.80176241D+01
 -0.18252698D+01 -0.14719734D+00 -0.25024916D+02 -0.17827065D+02 -0.80176241D+01
 -0.18252698D+01 -0.14719734D+00  0.00000000D+00  0.00000000D+00  0.00000000D+00
  0.00000000D+00  0.00000000D+00  0.00000000D+00  0.00000000D+00  0.00000000D+00
  0.00000000D+00  0.00000000D+00  0.00000000D+00  0.00000000D+00  0.00000000D+00
  0.00000000D+00  0.00000000D+00 -0.14973963D-01 -0.14973963D-01 -0.14973963D-01
  0.00000000D+00  0.00000000D+00  0.00000000D+00
MO   16     MO 0.0        OCC NO =    2.0000000  ORB. ENERGY =   -0.519132
  0.00000000D+00  0.00000000D+00  0.00000000D+00  0.00000000D+00  0.00000000D+00
  0.00000000D+00  0.00000000D+00  0.00000000D+00  0.00000000D+00  0.00000000D+00
  0.00000000D+00  0.00000000D+00  0.00000000D+00  0.00000000D+00  0.00000000D+00
  0.00000000D+00  0.00000000D+00  0.00000000D+00  0.00000000D+00  0.00000000D+00
  0.88309661D+01  0.13010901D+02  0.15367921D+02  0.16516034D+02  0.96261624D+01
  0.37135443D+01  0.00000000D+00  0.00000000D+00  0.00000000D+00  0.00000000D+00
  0.00000000D+00  0.00000000D+00  0.00000000D+00  0.00000000D+00  0.00000000D+00
 -0.24904297D+01 -0.16226974D+01 -0.29069219D+00  0.00000000D+00  0.00000000D+00
  0.00000000D+00  0.00000000D+00  0.41540836D+00  0.00000000D+00  0.00000000D+00
  0.76726598D-01  0.00000000D+00  0.00000000D+00  0.00000000D+00  0.00000000D+00
  0.00000000D+00  0.00000000D+00  0.00000000D+00  0.00000000D+00  0.00000000D+00
  0.00000000D+00  0.00000000D+00  0.00000000D+00  0.00000000D+00  0.00000000D+00
  0.00000000D+00  0.00000000D+00  0.00000000D+00  0.00000000D+00  0.00000000D+00
  0.00000000D+00  0.00000000D+00  0.00000000D+00  0.00000000D+00  0.00000000D+00
  0.00000000D+00  0.00000000D+00  0.00000000D+00  0.00000000D+00  0.00000000D+00
  0.00000000D+00  0.00000000D+00  0.00000000D+00  0.00000000D+00  0.00000000D+00
  0.00000000D+00  0.00000000D+00  0.00000000D+00
MO   17     MO 0.0        OCC NO =    2.0000000  ORB. ENERGY =   -0.519132
  0.00000000D+00  0.00000000D+00  0.00000000D+00  0.00000000D+00  0.00000000D+00
  0.00000000D+00  0.00000000D+00  0.00000000D+00  0.00000000D+00  0.00000000D+00
  0.00000000D+00  0.00000000D+00  0.00000000D+00  0.00000000D+00  0.00000000D+00
  0.00000000D+00  0.00000000D+00  0.00000000D+00  0.00000000D+00  0.00000000D+00
  0.00000000D+00  0.00000000D+00  0.00000000D+00  0.00000000D+00  0.00000000D+00
  0.00000000D+00  0.88309661D+01  0.13010901D+02  0.15367921D+02  0.16516034D+02
  0.96261624D+01  0.37135443D+01  0.00000000D+00  0.00000000D+00  0.00000000D+00
  0.00000000D+00  0.00000000D+00  0.00000000D+00 -0.24904297D+01 -0.16226974D+01
 -0.29069219D+00  0.00000000D+00  0.00000000D+00  0.41540836D+00  0.00000000D+00
  0.00000000D+00  0.76726598D-01  0.00000000D+00  0.00000000D+00  0.00000000D+00
  0.00000000D+00  0.00000000D+00  0.00000000D+00  0.00000000D+00  0.00000000D+00
  0.00000000D+00  0.00000000D+00  0.00000000D+00  0.00000000D+00  0.00000000D+00
  0.00000000D+00  0.00000000D+00  0.00000000D+00  0.00000000D+00  0.00000000D+00
  0.00000000D+00  0.00000000D+00  0.00000000D+00  0.00000000D+00  0.00000000D+00
  0.00000000D+00  0.00000000D+00  0.00000000D+00  0.00000000D+00  0.00000000D+00
  0.00000000D+00  0.00000000D+00  0.00000000D+00  0.00000000D+00  0.00000000D+00
  0.00000000D+00  0.00000000D+00  0.00000000D+00
MO   18     MO 0.0        OCC NO =    2.0000000  ORB. ENERGY =   -0.519132
  0.00000000D+00  0.00000000D+00  0.00000000D+00  0.00000000D+00  0.00000000D+00
  0.00000000D+00  0.00000000D+00  0.00000000D+00  0.00000000D+00  0.00000000D+00
  0.00000000D+00  0.00000000D+00  0.00000000D+00  0.00000000D+00  0.88309661D+01
  0.13010901D+02  0.15367921D+02  0.16516034D+02  0.96261624D+01  0.37135443D+01
  0.00000000D+00  0.00000000D+00  0.00000000D+00  0.00000000D+00  0.00000000D+00
  0.00000000D+00  0.00000000D+00  0.00000000D+00  0.00000000D+00  0.00000000D+00
  0.00000000D+00  0.00000000D+00 -0.24904297D+01 -0.16226974D+01 -0.29069219D+00
  0.00000000D+00  0.00000000D+00  0.00000000D+00  0.00000000D+00  0.00000000D+00
  0.00000000D+00  0.41540836D+00  0.00000000D+00  0.00000000D+00  0.76726598D-01
  0.00000000D+00  0.00000000D+00  0.00000000D+00  0.00000000D+00  0.00000000D+00
  0.00000000D+00  0.00000000D+00  0.00000000D+00  0.00000000D+00  0.00000000D+00
  0.00000000D+00  0.00000000D+00  0.00000000D+00  0.00000000D+00  0.00000000D+00
  0.00000000D+00  0.00000000D+00  0.00000000D+00  0.00000000D+00  0.00000000D+00
  0.00000000D+00  0.00000000D+00  0.00000000D+00  0.00000000D+00  0.00000000D+00
  0.00000000D+00  0.00000000D+00  0.00000000D+00  0.00000000D+00  0.00000000D+00
  0.00000000D+00  0.00000000D+00  0.00000000D+00  0.00000000D+00  0.00000000D+00
  0.00000000D+00  0.00000000D+00  0.00000000D+00
END DATA
 THE  HF ENERGY =  -2749.248559854909 THE VIRIAL(-V/T)=   2.00374215
