 Generated by Multiwfn
GAUSSIAN              2 MOL ORBITALS     28 PRIMITIVES        1 NUCLEI
  Li   1    (CENTRE  1)   0.00000000  0.00000000  0.00000000  CHARGE =  3.0
CENTRE ASSIGNMENTS    1  1  1  1  1  1  1  1  1  1  1  1  1  1  1  1  1  1  1  1
CENTRE ASSIGNMENTS    1  1  1  1  1  1  1  1
TYPE ASSIGNMENTS      1  1  1  1  1  1  1  1  1  2  2  2  3  3  3  4  4  4  1  2
TYPE ASSIGNMENTS      3  4  5  6  7  8  9 10
EXPONENTS  0.6424189D+03 0.9679852D+02 0.2209112D+02 0.6201070D+01 0.1935118D+01
EXPONENTS  0.6367358D+00 0.2324918D+01 0.6324304D+00 0.7905343D-01 0.2324918D+01
EXPONENTS  0.6324304D+00 0.7905343D-01 0.2324918D+01 0.6324304D+00 0.7905343D-01
EXPONENTS  0.2324918D+01 0.6324304D+00 0.7905343D-01 0.3596197D-01 0.3596197D-01
EXPONENTS  0.3596197D-01 0.3596197D-01 0.2000000D+00 0.2000000D+00 0.2000000D+00
EXPONENTS  0.2000000D+00 0.2000000D+00 0.2000000D+00
MO    1     MO 0.0        OCC NO =    2.0000000  ORB. ENERGY =   -2.467252
  0.19458278D+00  0.35600188D+00  0.56069707D+00  0.68739317D+00  0.54903622D+00
  0.17525840D+00  0.46907900D-03  0.96284692D-03 -0.11473613D-02  0.00000000D+00
  0.00000000D+00  0.00000000D+00  0.00000000D+00  0.00000000D+00  0.00000000D+00
  0.00000000D+00  0.00000000D+00  0.00000000D+00  0.92947274D-04  0.00000000D+00
  0.00000000D+00  0.00000000D+00  0.82621018D-03  0.82621018D-03  0.82621018D-03
  0.00000000D+00  0.00000000D+00  0.00000000D+00
MO    2     MO 0.0        OCC NO =    1.0000000  ORB. ENERGY =   -0.050808
 -0.36413332D-01 -0.66620563D-01 -0.10492628D+00 -0.12863561D+00 -0.10274413D+00
 -0.32797055D-01 -0.14160964D-01 -0.29067258D-01  0.34637537D-01  0.00000000D+00
  0.00000000D+00  0.00000000D+00  0.00000000D+00  0.00000000D+00  0.00000000D+00
  0.00000000D+00  0.00000000D+00  0.00000000D+00  0.40103402D-01  0.00000000D+00
  0.00000000D+00  0.00000000D+00  0.26868884D-02  0.26868884D-02  0.26868884D-02
  0.00000000D+00  0.00000000D+00  0.00000000D+00
END DATA
 THE  HF ENERGY =     -7.431368779415 THE VIRIAL(-V/T)=   1.99641606
