 Generated by Multiwfn
GAUSSIAN              6 MOL ORBITALS     52 PRIMITIVES        1 NUCLEI
  Mg   1    (CENTRE  1)   0.00000000  0.00000000  0.00000000  CHARGE = 12.0
CENTRE ASSIGNMENTS    1  1  1  1  1  1  1  1  1  1  1  1  1  1  1  1  1  1  1  1
CENTRE ASSIGNMENTS    1  1  1  1  1  1  1  1  1  1  1  1  1  1  1  1  1  1  1  1
CENTRE ASSIGNMENTS    1  1  1  1  1  1  1  1  1  1  1  1
TYPE ASSIGNMENTS      1  1  1  1  1  1  1  1  1  1  1  1  2  2  2  2  2  2  3  3
TYPE ASSIGNMENTS      3  3  3  3  4  4  4  4  4  4  1  1  1  2  2  2  3  3  3  4
TYPE ASSIGNMENTS      4  4  1  2  3  4  5  6  7  8  9 10
EXPONENTS  0.1172280D+05 0.1759930D+04 0.4008460D+03 0.1128070D+03 0.3599970D+02
EXPONENTS  0.1218280D+02 0.1891800D+03 0.4521190D+02 0.1435630D+02 0.5138860D+01
EXPONENTS  0.1906520D+01 0.7058870D+00 0.1891800D+03 0.4521190D+02 0.1435630D+02
EXPONENTS  0.5138860D+01 0.1906520D+01 0.7058870D+00 0.1891800D+03 0.4521190D+02
EXPONENTS  0.1435630D+02 0.5138860D+01 0.1906520D+01 0.7058870D+00 0.1891800D+03
EXPONENTS  0.4521190D+02 0.1435630D+02 0.5138860D+01 0.1906520D+01 0.7058870D+00
EXPONENTS  0.9293400D+00 0.2690350D+00 0.1173790D+00 0.9293400D+00 0.2690350D+00
EXPONENTS  0.1173790D+00 0.9293400D+00 0.2690350D+00 0.1173790D+00 0.9293400D+00
EXPONENTS  0.2690350D+00 0.1173790D+00 0.4210610D-01 0.4210610D-01 0.4210610D-01
EXPONENTS  0.4210610D-01 0.1750000D+00 0.1750000D+00 0.1750000D+00 0.1750000D+00
EXPONENTS  0.1750000D+00 0.1750000D+00
MO    1     MO 0.0        OCC NO =    2.0000000  ORB. ENERGY =  -49.019115
  0.15839617D+01  0.29193297D+01  0.47067730D+01  0.61314978D+01  0.50975570D+01
  0.14817793D+01 -0.12685048D-02 -0.54925914D-02 -0.63795563D-02  0.38970459D-02
  0.76839085D-02  0.21582956D-02  0.00000000D+00  0.00000000D+00  0.00000000D+00
  0.00000000D+00  0.00000000D+00  0.00000000D+00  0.00000000D+00  0.00000000D+00
  0.00000000D+00  0.00000000D+00  0.00000000D+00  0.00000000D+00  0.00000000D+00
  0.00000000D+00  0.00000000D+00  0.00000000D+00  0.00000000D+00  0.00000000D+00
  0.13122927D-02  0.26344516D-03 -0.15399664D-02  0.00000000D+00  0.00000000D+00
  0.00000000D+00  0.00000000D+00  0.00000000D+00  0.00000000D+00  0.00000000D+00
  0.00000000D+00  0.00000000D+00 -0.46443408D-04  0.00000000D+00  0.00000000D+00
  0.00000000D+00  0.29820041D-03  0.29820041D-03  0.29820041D-03  0.00000000D+00
  0.00000000D+00  0.00000000D+00
MO    2     MO 0.0        OCC NO =    2.0000000  ORB. ENERGY =   -3.763726
 -0.40501948D+00 -0.74647351D+00 -0.12035233D+01 -0.15678259D+01 -0.13034469D+01
 -0.37889143D+00 -0.12118590D+00 -0.52473164D+00 -0.60946734D+00  0.37230210D+00
  0.73407789D+00  0.20619156D+00  0.00000000D+00  0.00000000D+00  0.00000000D+00
  0.00000000D+00  0.00000000D+00  0.00000000D+00  0.00000000D+00  0.00000000D+00
  0.00000000D+00  0.00000000D+00  0.00000000D+00  0.00000000D+00  0.00000000D+00
  0.00000000D+00  0.00000000D+00  0.00000000D+00  0.00000000D+00  0.00000000D+00
  0.21064573D-03  0.42287515D-04 -0.24719130D-03  0.00000000D+00  0.00000000D+00
  0.00000000D+00  0.00000000D+00  0.00000000D+00  0.00000000D+00  0.00000000D+00
  0.00000000D+00  0.00000000D+00 -0.12137835D-03  0.00000000D+00  0.00000000D+00
  0.00000000D+00  0.22000086D-03  0.22000086D-03  0.22000086D-03  0.00000000D+00
  0.00000000D+00  0.00000000D+00
MO    3     MO 0.0        OCC NO =    2.0000000  ORB. ENERGY =   -2.278233
  0.00000000D+00  0.00000000D+00  0.00000000D+00  0.00000000D+00  0.00000000D+00
  0.00000000D+00  0.00000000D+00  0.00000000D+00  0.00000000D+00  0.00000000D+00
  0.00000000D+00  0.00000000D+00  0.00000000D+00  0.00000000D+00  0.00000000D+00
  0.00000000D+00  0.00000000D+00  0.00000000D+00  0.49043562D+01  0.58183631D+01
  0.55780222D+01  0.36615926D+01  0.14138684D+01  0.24710809D+00  0.00000000D+00
  0.00000000D+00  0.00000000D+00  0.00000000D+00  0.00000000D+00  0.00000000D+00
  0.00000000D+00  0.00000000D+00  0.00000000D+00  0.00000000D+00  0.00000000D+00
  0.00000000D+00 -0.66812523D-03  0.12167301D-02  0.18987630D-02  0.00000000D+00
  0.00000000D+00  0.00000000D+00  0.00000000D+00  0.00000000D+00 -0.17519021D-03
  0.00000000D+00  0.00000000D+00  0.00000000D+00  0.00000000D+00  0.00000000D+00
  0.00000000D+00  0.00000000D+00
MO    4     MO 0.0        OCC NO =    2.0000000  ORB. ENERGY =   -2.278233
  0.00000000D+00  0.00000000D+00  0.00000000D+00  0.00000000D+00  0.00000000D+00
  0.00000000D+00  0.00000000D+00  0.00000000D+00  0.00000000D+00  0.00000000D+00
  0.00000000D+00  0.00000000D+00  0.00000000D+00  0.00000000D+00  0.00000000D+00
  0.00000000D+00  0.00000000D+00  0.00000000D+00  0.00000000D+00  0.00000000D+00
  0.00000000D+00  0.00000000D+00  0.00000000D+00  0.00000000D+00  0.49043562D+01
  0.58183631D+01  0.55780222D+01  0.36615926D+01  0.14138684D+01  0.24710809D+00
  0.00000000D+00  0.00000000D+00  0.00000000D+00  0.00000000D+00  0.00000000D+00
  0.00000000D+00  0.00000000D+00  0.00000000D+00  0.00000000D+00 -0.66812523D-03
  0.12167301D-02  0.18987630D-02  0.00000000D+00  0.00000000D+00  0.00000000D+00
 -0.17519021D-03  0.00000000D+00  0.00000000D+00  0.00000000D+00  0.00000000D+00
  0.00000000D+00  0.00000000D+00
MO    5     MO 0.0        OCC NO =    2.0000000  ORB. ENERGY =   -2.278233
  0.00000000D+00  0.00000000D+00  0.00000000D+00  0.00000000D+00  0.00000000D+00
  0.00000000D+00  0.00000000D+00  0.00000000D+00  0.00000000D+00  0.00000000D+00
  0.00000000D+00  0.00000000D+00  0.49043562D+01  0.58183631D+01  0.55780222D+01
  0.36615926D+01  0.14138684D+01  0.24710809D+00  0.00000000D+00  0.00000000D+00
  0.00000000D+00  0.00000000D+00  0.00000000D+00  0.00000000D+00  0.00000000D+00
  0.00000000D+00  0.00000000D+00  0.00000000D+00  0.00000000D+00  0.00000000D+00
  0.00000000D+00  0.00000000D+00  0.00000000D+00 -0.66812523D-03  0.12167301D-02
  0.18987630D-02  0.00000000D+00  0.00000000D+00  0.00000000D+00  0.00000000D+00
  0.00000000D+00  0.00000000D+00  0.00000000D+00 -0.17519021D-03  0.00000000D+00
  0.00000000D+00  0.00000000D+00  0.00000000D+00  0.00000000D+00  0.00000000D+00
  0.00000000D+00  0.00000000D+00
MO    6     MO 0.0        OCC NO =    2.0000000  ORB. ENERGY =   -0.252511
  0.73502000D-01  0.13546829D+00  0.21841263D+00  0.28452542D+00  0.23654653D+00
  0.68760342D-01  0.29208164D-01  0.12647056D+00  0.14689351D+00 -0.89732065D-01
 -0.17692708D+00 -0.49696187D-01  0.00000000D+00  0.00000000D+00  0.00000000D+00
  0.00000000D+00  0.00000000D+00  0.00000000D+00  0.00000000D+00  0.00000000D+00
  0.00000000D+00  0.00000000D+00  0.00000000D+00  0.00000000D+00  0.00000000D+00
  0.00000000D+00  0.00000000D+00  0.00000000D+00  0.00000000D+00  0.00000000D+00
 -0.73868061D-01 -0.14829148D-01  0.86683657D-01  0.00000000D+00  0.00000000D+00
  0.00000000D+00  0.00000000D+00  0.00000000D+00  0.00000000D+00  0.00000000D+00
  0.00000000D+00  0.00000000D+00  0.36634700D-01  0.00000000D+00  0.00000000D+00
  0.00000000D+00 -0.69513788D-04 -0.69513788D-04 -0.69513788D-04  0.00000000D+00
  0.00000000D+00  0.00000000D+00
END DATA
 THE  HF ENERGY =   -199.595610855029 THE VIRIAL(-V/T)=   2.00015613
