 Generated by Multiwfn
GAUSSIAN              6 MOL ORBITALS     52 PRIMITIVES        1 NUCLEI
  Na   1    (CENTRE  1)   0.00000000  0.00000000  0.00000000  CHARGE = 11.0
CENTRE ASSIGNMENTS    1  1  1  1  1  1  1  1  1  1  1  1  1  1  1  1  1  1  1  1
CENTRE ASSIGNMENTS    1  1  1  1  1  1  1  1  1  1  1  1  1  1  1  1  1  1  1  1
CENTRE ASSIGNMENTS    1  1  1  1  1  1  1  1  1  1  1  1
TYPE ASSIGNMENTS      1  1  1  1  1  1  1  1  1  1  1  1  2  2  2  2  2  2  3  3
TYPE ASSIGNMENTS      3  3  3  3  4  4  4  4  4  4  1  1  1  2  2  2  3  3  3  4
TYPE ASSIGNMENTS      4  4  1  2  3  4  5  6  7  8  9 10
EXPONENTS  0.9993200D+04 0.1499890D+04 0.3419510D+03 0.9467960D+02 0.2973450D+02
EXPONENTS  0.1000630D+02 0.1509630D+03 0.3558780D+02 0.1116830D+02 0.3902010D+01
EXPONENTS  0.1381770D+01 0.4663820D+00 0.1509630D+03 0.3558780D+02 0.1116830D+02
EXPONENTS  0.3902010D+01 0.1381770D+01 0.4663820D+00 0.1509630D+03 0.3558780D+02
EXPONENTS  0.1116830D+02 0.3902010D+01 0.1381770D+01 0.4663820D+00 0.1509630D+03
EXPONENTS  0.3558780D+02 0.1116830D+02 0.3902010D+01 0.1381770D+01 0.4663820D+00
EXPONENTS  0.4979660D+00 0.8435290D-01 0.6663500D-01 0.4979660D+00 0.8435290D-01
EXPONENTS  0.6663500D-01 0.4979660D+00 0.8435290D-01 0.6663500D-01 0.4979660D+00
EXPONENTS  0.8435290D-01 0.6663500D-01 0.2595440D-01 0.2595440D-01 0.2595440D-01
EXPONENTS  0.2595440D-01 0.1750000D+00 0.1750000D+00 0.1750000D+00 0.1750000D+00
EXPONENTS  0.1750000D+00 0.1750000D+00
MO    1     MO 0.0        OCC NO =    2.0000000  ORB. ENERGY =  -40.492479
  0.13773989D+01  0.25381388D+01  0.41119129D+01  0.54535493D+01  0.44669311D+01
  0.12531055D+01 -0.96069126D-03 -0.40336134D-02 -0.42225552D-02  0.32764521D-02
  0.51904092D-02  0.10877589D-02  0.00000000D+00  0.00000000D+00  0.00000000D+00
  0.00000000D+00  0.00000000D+00  0.00000000D+00  0.00000000D+00  0.00000000D+00
  0.00000000D+00  0.00000000D+00  0.00000000D+00  0.00000000D+00  0.00000000D+00
  0.00000000D+00  0.00000000D+00  0.00000000D+00  0.00000000D+00  0.00000000D+00
  0.10160619D-03  0.14218794D-04 -0.11158653D-03  0.00000000D+00  0.00000000D+00
  0.00000000D+00  0.00000000D+00  0.00000000D+00  0.00000000D+00  0.00000000D+00
  0.00000000D+00  0.00000000D+00  0.22059119D-04  0.00000000D+00  0.00000000D+00
  0.00000000D+00 -0.14474604D-04 -0.14474604D-04 -0.14474604D-04  0.00000000D+00
  0.00000000D+00  0.00000000D+00
MO    2     MO 0.0        OCC NO =    2.0000000  ORB. ENERGY =   -2.803667
 -0.33927035D+00 -0.62517490D+00 -0.10128149D+01 -0.13432765D+01 -0.11002603D+01
 -0.30865535D+00 -0.11178486D+00 -0.46934631D+00 -0.49133135D+00  0.38124395D+00
  0.60394965D+00  0.12657030D+00  0.00000000D+00  0.00000000D+00  0.00000000D+00
  0.00000000D+00  0.00000000D+00  0.00000000D+00  0.00000000D+00  0.00000000D+00
  0.00000000D+00  0.00000000D+00  0.00000000D+00  0.00000000D+00  0.00000000D+00
  0.00000000D+00  0.00000000D+00  0.00000000D+00  0.00000000D+00  0.00000000D+00
 -0.44123311D-03 -0.61746262D-04  0.48457353D-03  0.00000000D+00  0.00000000D+00
  0.00000000D+00  0.00000000D+00  0.00000000D+00  0.00000000D+00  0.00000000D+00
  0.00000000D+00  0.00000000D+00  0.33213087D-04  0.00000000D+00  0.00000000D+00
  0.00000000D+00 -0.25618450D-03 -0.25618450D-03 -0.25618450D-03  0.00000000D+00
  0.00000000D+00  0.00000000D+00
MO    3     MO 0.0        OCC NO =    2.0000000  ORB. ENERGY =   -1.524642
  0.00000000D+00  0.00000000D+00  0.00000000D+00  0.00000000D+00  0.00000000D+00
  0.00000000D+00  0.00000000D+00  0.00000000D+00  0.00000000D+00  0.00000000D+00
  0.00000000D+00  0.00000000D+00  0.37656852D+01  0.43916711D+01  0.41488695D+01
  0.26421945D+01  0.96254299D+00  0.14985198D+00  0.00000000D+00  0.00000000D+00
  0.00000000D+00  0.00000000D+00  0.00000000D+00  0.00000000D+00  0.00000000D+00
  0.00000000D+00  0.00000000D+00  0.00000000D+00  0.00000000D+00  0.00000000D+00
  0.00000000D+00  0.00000000D+00  0.00000000D+00 -0.13815686D-03  0.61977358D-03
  0.29071660D-04  0.00000000D+00  0.00000000D+00  0.00000000D+00  0.00000000D+00
  0.00000000D+00  0.00000000D+00  0.00000000D+00 -0.21779256D-04  0.00000000D+00
  0.00000000D+00  0.00000000D+00  0.00000000D+00  0.00000000D+00  0.00000000D+00
  0.00000000D+00  0.00000000D+00
MO    4     MO 0.0        OCC NO =    2.0000000  ORB. ENERGY =   -1.524642
  0.00000000D+00  0.00000000D+00  0.00000000D+00  0.00000000D+00  0.00000000D+00
  0.00000000D+00  0.00000000D+00  0.00000000D+00  0.00000000D+00  0.00000000D+00
  0.00000000D+00  0.00000000D+00  0.00000000D+00  0.00000000D+00  0.00000000D+00
  0.00000000D+00  0.00000000D+00  0.00000000D+00  0.37656852D+01  0.43916711D+01
  0.41488695D+01  0.26421945D+01  0.96254299D+00  0.14985198D+00  0.00000000D+00
  0.00000000D+00  0.00000000D+00  0.00000000D+00  0.00000000D+00  0.00000000D+00
  0.00000000D+00  0.00000000D+00  0.00000000D+00  0.00000000D+00  0.00000000D+00
  0.00000000D+00 -0.13815686D-03  0.61977358D-03  0.29071660D-04  0.00000000D+00
  0.00000000D+00  0.00000000D+00  0.00000000D+00  0.00000000D+00 -0.21779256D-04
  0.00000000D+00  0.00000000D+00  0.00000000D+00  0.00000000D+00  0.00000000D+00
  0.00000000D+00  0.00000000D+00
MO    5     MO 0.0        OCC NO =    2.0000000  ORB. ENERGY =   -1.524642
  0.00000000D+00  0.00000000D+00  0.00000000D+00  0.00000000D+00  0.00000000D+00
  0.00000000D+00  0.00000000D+00  0.00000000D+00  0.00000000D+00  0.00000000D+00
  0.00000000D+00  0.00000000D+00  0.00000000D+00  0.00000000D+00  0.00000000D+00
  0.00000000D+00  0.00000000D+00  0.00000000D+00  0.00000000D+00  0.00000000D+00
  0.00000000D+00  0.00000000D+00  0.00000000D+00  0.00000000D+00  0.37656852D+01
  0.43916711D+01  0.41488695D+01  0.26421945D+01  0.96254299D+00  0.14985198D+00
  0.00000000D+00  0.00000000D+00  0.00000000D+00  0.00000000D+00  0.00000000D+00
  0.00000000D+00  0.00000000D+00  0.00000000D+00  0.00000000D+00 -0.13815686D-03
  0.61977358D-03  0.29071660D-04  0.00000000D+00  0.00000000D+00  0.00000000D+00
 -0.21779256D-04  0.00000000D+00  0.00000000D+00  0.00000000D+00  0.00000000D+00
  0.00000000D+00  0.00000000D+00
MO    6     MO 0.0        OCC NO =    1.0000000  ORB. ENERGY =   -0.049600
  0.47621736D-01  0.87752773D-01  0.14216392D+00  0.18854921D+00  0.15443820D+00
  0.43324456D-01  0.20826663D-01  0.87444021D-01  0.91540057D-01 -0.71029649D-01
 -0.11252200D+00 -0.23581341D-01  0.00000000D+00  0.00000000D+00  0.00000000D+00
  0.00000000D+00  0.00000000D+00  0.00000000D+00  0.00000000D+00  0.00000000D+00
  0.00000000D+00  0.00000000D+00  0.00000000D+00  0.00000000D+00  0.00000000D+00
  0.00000000D+00  0.00000000D+00  0.00000000D+00  0.00000000D+00  0.00000000D+00
 -0.52225844D-01 -0.73084965D-02  0.57355763D-01  0.00000000D+00  0.00000000D+00
  0.00000000D+00  0.00000000D+00  0.00000000D+00  0.00000000D+00  0.00000000D+00
  0.00000000D+00  0.00000000D+00  0.25661298D-01  0.00000000D+00  0.00000000D+00
  0.00000000D+00 -0.14636512D-03 -0.14636512D-03 -0.14636512D-03  0.00000000D+00
  0.00000000D+00  0.00000000D+00
END DATA
 THE  HF ENERGY =   -161.841402030223 THE VIRIAL(-V/T)=   2.00094233
