 Generated by Multiwfn
GAUSSIAN              5 MOL ORBITALS     28 PRIMITIVES        1 NUCLEI
  Ne   1    (CENTRE  1)   0.00000000  0.00000000  0.00000000  CHARGE = 10.0
CENTRE ASSIGNMENTS    1  1  1  1  1  1  1  1  1  1  1  1  1  1  1  1  1  1  1  1
CENTRE ASSIGNMENTS    1  1  1  1  1  1  1  1
TYPE ASSIGNMENTS      1  1  1  1  1  1  1  1  1  2  2  2  3  3  3  4  4  4  1  2
TYPE ASSIGNMENTS      3  4  5  6  7  8  9 10
EXPONENTS  0.8425852D+04 0.1268519D+04 0.2896214D+03 0.8185900D+02 0.2625151D+02
EXPONENTS  0.9094721D+01 0.2653213D+02 0.6101755D+01 0.1696272D+01 0.2653213D+02
EXPONENTS  0.6101755D+01 0.1696272D+01 0.2653213D+02 0.6101755D+01 0.1696272D+01
EXPONENTS  0.2653213D+02 0.6101755D+01 0.1696272D+01 0.4458187D+00 0.4458187D+00
EXPONENTS  0.4458187D+00 0.4458187D+00 0.8000000D+00 0.8000000D+00 0.8000000D+00
EXPONENTS  0.8000000D+00 0.8000000D+00 0.8000000D+00
MO    1     MO 0.0        OCC NO =    2.0000000  ORB. ENERGY =  -32.761061
  0.11750890D+01  0.21608636D+01  0.34901968D+01  0.45806902D+01  0.38898482D+01
  0.12938114D+01 -0.14755747D-01 -0.66865092D-02  0.19752037D-01  0.00000000D+00
  0.00000000D+00  0.00000000D+00  0.00000000D+00  0.00000000D+00  0.00000000D+00
  0.00000000D+00  0.00000000D+00  0.00000000D+00  0.22108426D-02  0.00000000D+00
  0.00000000D+00  0.00000000D+00 -0.35623389D-02 -0.35623389D-02 -0.35623389D-02
  0.00000000D+00  0.00000000D+00  0.00000000D+00
MO    2     MO 0.0        OCC NO =    2.0000000  ORB. ENERGY =   -1.910707
 -0.28321325D+00 -0.52079903D+00 -0.84118734D+00 -0.11040119D+01 -0.93750904D+00
 -0.31182706D+00 -0.51524956D+00 -0.23348333D+00  0.68971286D+00  0.00000000D+00
  0.00000000D+00  0.00000000D+00  0.00000000D+00  0.00000000D+00  0.00000000D+00
  0.00000000D+00  0.00000000D+00  0.00000000D+00  0.18091566D+00  0.00000000D+00
  0.00000000D+00  0.00000000D+00  0.30918735D-01  0.30918735D-01  0.30918735D-01
  0.00000000D+00  0.00000000D+00  0.00000000D+00
MO    3     MO 0.0        OCC NO =    2.0000000  ORB. ENERGY =   -0.830225
  0.00000000D+00  0.00000000D+00  0.00000000D+00  0.00000000D+00  0.00000000D+00
  0.00000000D+00  0.00000000D+00  0.00000000D+00  0.00000000D+00  0.42604641D+01
  0.32978978D+01  0.13712630D+01  0.00000000D+00  0.00000000D+00  0.00000000D+00
  0.00000000D+00  0.00000000D+00  0.00000000D+00  0.00000000D+00  0.23849520D+00
  0.00000000D+00  0.00000000D+00  0.00000000D+00  0.00000000D+00  0.00000000D+00
  0.00000000D+00  0.00000000D+00  0.00000000D+00
MO    4     MO 0.0        OCC NO =    2.0000000  ORB. ENERGY =   -0.830225
  0.00000000D+00  0.00000000D+00  0.00000000D+00  0.00000000D+00  0.00000000D+00
  0.00000000D+00  0.00000000D+00  0.00000000D+00  0.00000000D+00  0.00000000D+00
  0.00000000D+00  0.00000000D+00  0.00000000D+00  0.00000000D+00  0.00000000D+00
  0.42604641D+01  0.32978978D+01  0.13712630D+01  0.00000000D+00  0.00000000D+00
  0.00000000D+00  0.23849520D+00  0.00000000D+00  0.00000000D+00  0.00000000D+00
  0.00000000D+00  0.00000000D+00  0.00000000D+00
MO    5     MO 0.0        OCC NO =    2.0000000  ORB. ENERGY =   -0.830225
  0.00000000D+00  0.00000000D+00  0.00000000D+00  0.00000000D+00  0.00000000D+00
  0.00000000D+00  0.00000000D+00  0.00000000D+00  0.00000000D+00  0.00000000D+00
  0.00000000D+00  0.00000000D+00  0.42604641D+01  0.32978978D+01  0.13712630D+01
  0.00000000D+00  0.00000000D+00  0.00000000D+00  0.00000000D+00  0.00000000D+00
  0.23849520D+00  0.00000000D+00  0.00000000D+00  0.00000000D+00  0.00000000D+00
  0.00000000D+00  0.00000000D+00  0.00000000D+00
END DATA
 THE  HF ENERGY =   -128.474406788325 THE VIRIAL(-V/T)=   2.00088622
