 Generated by Multiwfn
GAUSSIAN              9 MOL ORBITALS     52 PRIMITIVES        1 NUCLEI
  P    1    (CENTRE  1)   0.00000000  0.00000000  0.00000000  CHARGE = 15.0
CENTRE ASSIGNMENTS    1  1  1  1  1  1  1  1  1  1  1  1  1  1  1  1  1  1  1  1
CENTRE ASSIGNMENTS    1  1  1  1  1  1  1  1  1  1  1  1  1  1  1  1  1  1  1  1
CENTRE ASSIGNMENTS    1  1  1  1  1  1  1  1  1  1  1  1
TYPE ASSIGNMENTS      1  1  1  1  1  1  1  1  1  1  1  1  2  2  2  2  2  2  3  3
TYPE ASSIGNMENTS      3  3  3  3  4  4  4  4  4  4  1  1  1  2  2  2  3  3  3  4
TYPE ASSIGNMENTS      4  4  1  2  3  4  5  6  7  8  9 10
EXPONENTS  0.1941330D+05 0.2909420D+04 0.6613640D+03 0.1857590D+03 0.5919430D+02
EXPONENTS  0.2003100D+02 0.3394780D+03 0.8101010D+02 0.2587800D+02 0.9452210D+01
EXPONENTS  0.3665660D+01 0.1467460D+01 0.3394780D+03 0.8101010D+02 0.2587800D+02
EXPONENTS  0.9452210D+01 0.3665660D+01 0.1467460D+01 0.3394780D+03 0.8101010D+02
EXPONENTS  0.2587800D+02 0.9452210D+01 0.3665660D+01 0.1467460D+01 0.3394780D+03
EXPONENTS  0.8101010D+02 0.2587800D+02 0.9452210D+01 0.3665660D+01 0.1467460D+01
EXPONENTS  0.2156230D+01 0.7489970D+00 0.2831450D+00 0.2156230D+01 0.7489970D+00
EXPONENTS  0.2831450D+00 0.2156230D+01 0.7489970D+00 0.2831450D+00 0.2156230D+01
EXPONENTS  0.7489970D+00 0.2831450D+00 0.9983170D-01 0.9983170D-01 0.9983170D-01
EXPONENTS  0.9983170D-01 0.5500000D+00 0.5500000D+00 0.5500000D+00 0.5500000D+00
EXPONENTS  0.5500000D+00 0.5500000D+00
MO    1     MO 0.0        OCC NO =    2.0000000  ORB. ENERGY =  -79.953414
  0.21626538D+01  0.39966678D+01  0.64832185D+01  0.85789054D+01  0.73468943D+01
  0.22539605D+01 -0.21118404D-02 -0.93428021D-02 -0.12843422D-01  0.50100403D-02
  0.15622365D-01  0.51672274D-02  0.00000000D+00  0.00000000D+00  0.00000000D+00
  0.00000000D+00  0.00000000D+00  0.00000000D+00  0.00000000D+00  0.00000000D+00
  0.00000000D+00  0.00000000D+00  0.00000000D+00  0.00000000D+00  0.00000000D+00
  0.00000000D+00  0.00000000D+00  0.00000000D+00  0.00000000D+00  0.00000000D+00
  0.68561106D-02 -0.40293601D-03 -0.63936811D-02  0.00000000D+00  0.00000000D+00
  0.00000000D+00  0.00000000D+00  0.00000000D+00  0.00000000D+00  0.00000000D+00
  0.00000000D+00  0.00000000D+00  0.38616676D-03  0.00000000D+00  0.00000000D+00
  0.00000000D+00  0.42971158D-02  0.42971158D-02  0.42971158D-02  0.00000000D+00
  0.00000000D+00  0.00000000D+00
MO    2     MO 0.0        OCC NO =    2.0000000  ORB. ENERGY =   -7.503979
 -0.59951273D+00 -0.11079227D+01 -0.17972234D+01 -0.23781721D+01 -0.20366444D+01
 -0.62482399D+00 -0.16172077D+00 -0.71545422D+00 -0.98352508D+00  0.38365947D+00
  0.11963313D+01  0.39569656D+00  0.00000000D+00  0.00000000D+00  0.00000000D+00
  0.00000000D+00  0.00000000D+00  0.00000000D+00  0.00000000D+00  0.00000000D+00
  0.00000000D+00  0.00000000D+00  0.00000000D+00  0.00000000D+00  0.00000000D+00
  0.00000000D+00  0.00000000D+00  0.00000000D+00  0.00000000D+00  0.00000000D+00
 -0.49863963D-02  0.29305225D-03  0.46500749D-02  0.00000000D+00  0.00000000D+00
  0.00000000D+00  0.00000000D+00  0.00000000D+00  0.00000000D+00  0.00000000D+00
  0.00000000D+00  0.00000000D+00 -0.46952153D-03  0.00000000D+00  0.00000000D+00
  0.00000000D+00 -0.60344357D-03 -0.60344357D-03 -0.60344357D-03  0.00000000D+00
  0.00000000D+00  0.00000000D+00
MO    3     MO 0.0        OCC NO =    2.0000000  ORB. ENERGY =   -5.391329
  0.00000000D+00  0.00000000D+00  0.00000000D+00  0.00000000D+00  0.00000000D+00
  0.00000000D+00  0.00000000D+00  0.00000000D+00  0.00000000D+00  0.00000000D+00
  0.00000000D+00  0.00000000D+00  0.00000000D+00  0.00000000D+00  0.00000000D+00
  0.00000000D+00  0.00000000D+00  0.00000000D+00  0.00000000D+00  0.00000000D+00
  0.00000000D+00  0.00000000D+00  0.00000000D+00  0.00000000D+00  0.94286732D+01
  0.11607877D+02  0.11562777D+02  0.79728083D+01  0.32420678D+01  0.54624089D+00
  0.00000000D+00  0.00000000D+00  0.00000000D+00  0.00000000D+00  0.00000000D+00
  0.00000000D+00  0.00000000D+00  0.00000000D+00  0.00000000D+00 -0.12759438D-02
  0.52490744D-02  0.44591674D-02  0.00000000D+00  0.00000000D+00  0.00000000D+00
 -0.36340629D-03  0.00000000D+00  0.00000000D+00  0.00000000D+00  0.00000000D+00
  0.00000000D+00  0.00000000D+00
MO    4     MO 0.0        OCC NO =    2.0000000  ORB. ENERGY =   -5.391329
  0.00000000D+00  0.00000000D+00  0.00000000D+00  0.00000000D+00  0.00000000D+00
  0.00000000D+00  0.00000000D+00  0.00000000D+00  0.00000000D+00  0.00000000D+00
  0.00000000D+00  0.00000000D+00  0.94286732D+01  0.11607877D+02  0.11562777D+02
  0.79728083D+01  0.32420678D+01  0.54624089D+00  0.00000000D+00  0.00000000D+00
  0.00000000D+00  0.00000000D+00  0.00000000D+00  0.00000000D+00  0.00000000D+00
  0.00000000D+00  0.00000000D+00  0.00000000D+00  0.00000000D+00  0.00000000D+00
  0.00000000D+00  0.00000000D+00  0.00000000D+00 -0.12759438D-02  0.52490744D-02
  0.44591674D-02  0.00000000D+00  0.00000000D+00  0.00000000D+00  0.00000000D+00
  0.00000000D+00  0.00000000D+00  0.00000000D+00 -0.36340629D-03  0.00000000D+00
  0.00000000D+00  0.00000000D+00  0.00000000D+00  0.00000000D+00  0.00000000D+00
  0.00000000D+00  0.00000000D+00
MO    5     MO 0.0        OCC NO =    2.0000000  ORB. ENERGY =   -5.391329
  0.00000000D+00  0.00000000D+00  0.00000000D+00  0.00000000D+00  0.00000000D+00
  0.00000000D+00  0.00000000D+00  0.00000000D+00  0.00000000D+00  0.00000000D+00
  0.00000000D+00  0.00000000D+00  0.00000000D+00  0.00000000D+00  0.00000000D+00
  0.00000000D+00  0.00000000D+00  0.00000000D+00  0.94286732D+01  0.11607877D+02
  0.11562777D+02  0.79728083D+01  0.32420678D+01  0.54624089D+00  0.00000000D+00
  0.00000000D+00  0.00000000D+00  0.00000000D+00  0.00000000D+00  0.00000000D+00
  0.00000000D+00  0.00000000D+00  0.00000000D+00  0.00000000D+00  0.00000000D+00
  0.00000000D+00 -0.12759438D-02  0.52490744D-02  0.44591674D-02  0.00000000D+00
  0.00000000D+00  0.00000000D+00  0.00000000D+00  0.00000000D+00 -0.36340629D-03
  0.00000000D+00  0.00000000D+00  0.00000000D+00  0.00000000D+00  0.00000000D+00
  0.00000000D+00  0.00000000D+00
MO    6     MO 0.0        OCC NO =    2.0000000  ORB. ENERGY =   -0.648771
  0.15714258D+00  0.29040555D+00  0.47108310D+00  0.62335973D+00  0.53383944D+00
  0.16377709D+00  0.53081356D-01  0.23483243D+00  0.32282091D+00 -0.12592795D+00
 -0.39266997D+00 -0.12987887D+00  0.00000000D+00  0.00000000D+00  0.00000000D+00
  0.00000000D+00  0.00000000D+00  0.00000000D+00  0.00000000D+00  0.00000000D+00
  0.00000000D+00  0.00000000D+00  0.00000000D+00  0.00000000D+00  0.00000000D+00
  0.00000000D+00  0.00000000D+00  0.00000000D+00  0.00000000D+00  0.00000000D+00
 -0.22534828D+00  0.13243797D-01  0.21014903D+00  0.00000000D+00  0.00000000D+00
  0.00000000D+00  0.00000000D+00  0.00000000D+00  0.00000000D+00  0.00000000D+00
  0.00000000D+00  0.00000000D+00  0.48667229D-01  0.00000000D+00  0.00000000D+00
  0.00000000D+00  0.81156224D-03  0.81156224D-03  0.81156224D-03  0.00000000D+00
  0.00000000D+00  0.00000000D+00
MO    7     MO 0.0        OCC NO =    1.0000000  ORB. ENERGY =   -0.103938
  0.00000000D+00  0.00000000D+00  0.00000000D+00  0.00000000D+00  0.00000000D+00
  0.00000000D+00  0.00000000D+00  0.00000000D+00  0.00000000D+00  0.00000000D+00
  0.00000000D+00  0.00000000D+00  0.00000000D+00  0.00000000D+00  0.00000000D+00
  0.00000000D+00  0.00000000D+00  0.00000000D+00  0.00000000D+00  0.00000000D+00
  0.00000000D+00  0.00000000D+00  0.00000000D+00  0.00000000D+00 -0.23826305D+01
 -0.29333163D+01 -0.29219196D+01 -0.20147327D+01 -0.81927217D+00 -0.13803535D+00
  0.00000000D+00  0.00000000D+00  0.00000000D+00  0.00000000D+00  0.00000000D+00
  0.00000000D+00  0.00000000D+00  0.00000000D+00  0.00000000D+00 -0.45869309D-01
  0.18870064D+00  0.16030403D+00  0.00000000D+00  0.00000000D+00  0.00000000D+00
  0.34364577D-01  0.00000000D+00  0.00000000D+00  0.00000000D+00  0.00000000D+00
  0.00000000D+00  0.00000000D+00
MO    8     MO 0.0        OCC NO =    1.0000000  ORB. ENERGY =   -0.103938
  0.00000000D+00  0.00000000D+00  0.00000000D+00  0.00000000D+00  0.00000000D+00
  0.00000000D+00  0.00000000D+00  0.00000000D+00  0.00000000D+00  0.00000000D+00
  0.00000000D+00  0.00000000D+00  0.00000000D+00  0.00000000D+00  0.00000000D+00
  0.00000000D+00  0.00000000D+00  0.00000000D+00 -0.23826305D+01 -0.29333163D+01
 -0.29219196D+01 -0.20147327D+01 -0.81927217D+00 -0.13803535D+00  0.00000000D+00
  0.00000000D+00  0.00000000D+00  0.00000000D+00  0.00000000D+00  0.00000000D+00
  0.00000000D+00  0.00000000D+00  0.00000000D+00  0.00000000D+00  0.00000000D+00
  0.00000000D+00 -0.45869309D-01  0.18870064D+00  0.16030403D+00  0.00000000D+00
  0.00000000D+00  0.00000000D+00  0.00000000D+00  0.00000000D+00  0.34364577D-01
  0.00000000D+00  0.00000000D+00  0.00000000D+00  0.00000000D+00  0.00000000D+00
  0.00000000D+00  0.00000000D+00
MO    9     MO 0.0        OCC NO =    1.0000000  ORB. ENERGY =   -0.103938
  0.00000000D+00  0.00000000D+00  0.00000000D+00  0.00000000D+00  0.00000000D+00
  0.00000000D+00  0.00000000D+00  0.00000000D+00  0.00000000D+00  0.00000000D+00
  0.00000000D+00  0.00000000D+00 -0.23826305D+01 -0.29333163D+01 -0.29219196D+01
 -0.20147327D+01 -0.81927217D+00 -0.13803535D+00  0.00000000D+00  0.00000000D+00
  0.00000000D+00  0.00000000D+00  0.00000000D+00  0.00000000D+00  0.00000000D+00
  0.00000000D+00  0.00000000D+00  0.00000000D+00  0.00000000D+00  0.00000000D+00
  0.00000000D+00  0.00000000D+00  0.00000000D+00 -0.45869309D-01  0.18870064D+00
  0.16030403D+00  0.00000000D+00  0.00000000D+00  0.00000000D+00  0.00000000D+00
  0.00000000D+00  0.00000000D+00  0.00000000D+00  0.34364577D-01  0.00000000D+00
  0.00000000D+00  0.00000000D+00  0.00000000D+00  0.00000000D+00  0.00000000D+00
  0.00000000D+00  0.00000000D+00
END DATA
 THE  HF ENERGY =   -340.689986774465 THE VIRIAL(-V/T)=   2.00037618
