 Generated by Multiwfn
GAUSSIAN              9 MOL ORBITALS     52 PRIMITIVES        1 NUCLEI
  S    1    (CENTRE  1)   0.00000000  0.00000000  0.00000000  CHARGE = 16.0
CENTRE ASSIGNMENTS    1  1  1  1  1  1  1  1  1  1  1  1  1  1  1  1  1  1  1  1
CENTRE ASSIGNMENTS    1  1  1  1  1  1  1  1  1  1  1  1  1  1  1  1  1  1  1  1
CENTRE ASSIGNMENTS    1  1  1  1  1  1  1  1  1  1  1  1
TYPE ASSIGNMENTS      1  1  1  1  1  1  1  1  1  1  1  1  2  2  2  2  2  2  3  3
TYPE ASSIGNMENTS      3  3  3  3  4  4  4  4  4  4  1  1  1  2  2  2  3  3  3  4
TYPE ASSIGNMENTS      4  4  1  2  3  4  5  6  7  8  9 10
EXPONENTS  0.2191710D+05 0.3301490D+04 0.7541460D+03 0.2127110D+03 0.6798960D+02
EXPONENTS  0.2305150D+02 0.4237350D+03 0.1007100D+03 0.3215990D+02 0.1180790D+02
EXPONENTS  0.4631100D+01 0.1870250D+01 0.4237350D+03 0.1007100D+03 0.3215990D+02
EXPONENTS  0.1180790D+02 0.4631100D+01 0.1870250D+01 0.4237350D+03 0.1007100D+03
EXPONENTS  0.3215990D+02 0.1180790D+02 0.4631100D+01 0.1870250D+01 0.4237350D+03
EXPONENTS  0.1007100D+03 0.3215990D+02 0.1180790D+02 0.4631100D+01 0.1870250D+01
EXPONENTS  0.2615840D+01 0.9221670D+00 0.3412870D+00 0.2615840D+01 0.9221670D+00
EXPONENTS  0.3412870D+00 0.2615840D+01 0.9221670D+00 0.3412870D+00 0.2615840D+01
EXPONENTS  0.9221670D+00 0.3412870D+00 0.1171670D+00 0.1171670D+00 0.1171670D+00
EXPONENTS  0.1171670D+00 0.6500000D+00 0.6500000D+00 0.6500000D+00 0.6500000D+00
EXPONENTS  0.6500000D+00 0.6500000D+00
MO    1     MO 0.0        OCC NO =    2.0000000  ORB. ENERGY =  -91.988250
  0.23907849D+01  0.44008307D+01  0.71217839D+01  0.94318154D+01  0.81253686D+01
  0.25253657D+01 -0.22493821D-02 -0.10209939D-01 -0.15507308D-01  0.36205143D-02
  0.18946421D-01  0.73738993D-02  0.00000000D+00  0.00000000D+00  0.00000000D+00
  0.00000000D+00  0.00000000D+00  0.00000000D+00  0.00000000D+00  0.00000000D+00
  0.00000000D+00  0.00000000D+00  0.00000000D+00  0.00000000D+00  0.00000000D+00
  0.00000000D+00  0.00000000D+00  0.00000000D+00  0.00000000D+00  0.00000000D+00
  0.72593651D-02 -0.88818656D-03 -0.66373014D-02  0.00000000D+00  0.00000000D+00
  0.00000000D+00  0.00000000D+00  0.00000000D+00  0.00000000D+00  0.00000000D+00
  0.00000000D+00  0.00000000D+00  0.33792744D-03  0.00000000D+00  0.00000000D+00
  0.00000000D+00  0.53517602D-02  0.53416969D-02  0.53517602D-02  0.00000000D+00
  0.00000000D+00  0.00000000D+00
MO    2     MO 0.0        OCC NO =    2.0000000  ORB. ENERGY =   -8.997223
 -0.67644134D+00 -0.12451576D+01 -0.20150157D+01 -0.26686089D+01 -0.22989669D+01
 -0.71451924D+00 -0.16305573D+00 -0.74010947D+00 -0.11241111D+01  0.26244790D+00
  0.13734094D+01  0.53452748D+00  0.00000000D+00  0.00000000D+00  0.00000000D+00
  0.00000000D+00  0.00000000D+00  0.00000000D+00  0.00000000D+00  0.00000000D+00
  0.00000000D+00  0.00000000D+00  0.00000000D+00  0.00000000D+00  0.00000000D+00
  0.00000000D+00  0.00000000D+00  0.00000000D+00  0.00000000D+00  0.00000000D+00
 -0.81029607D-02  0.99140086D-03  0.74086083D-02  0.00000000D+00  0.00000000D+00
  0.00000000D+00  0.00000000D+00  0.00000000D+00  0.00000000D+00  0.00000000D+00
  0.00000000D+00  0.00000000D+00 -0.79165091D-03  0.00000000D+00  0.00000000D+00
  0.00000000D+00 -0.78602188D-03 -0.11309810D-02 -0.78602188D-03  0.00000000D+00
  0.00000000D+00  0.00000000D+00
MO    3     MO 0.0        OCC NO =    2.0000000  ORB. ENERGY =   -6.675232
  0.00000000D+00  0.00000000D+00  0.00000000D+00  0.00000000D+00  0.00000000D+00
  0.00000000D+00  0.00000000D+00  0.00000000D+00  0.00000000D+00  0.00000000D+00
  0.00000000D+00  0.00000000D+00  0.00000000D+00  0.00000000D+00  0.00000000D+00
  0.00000000D+00  0.00000000D+00  0.00000000D+00  0.11063019D+02  0.13870310D+02
  0.14156822D+02  0.10148630D+02  0.43594549D+01  0.79351922D+00  0.00000000D+00
  0.00000000D+00  0.00000000D+00  0.00000000D+00  0.00000000D+00  0.00000000D+00
  0.00000000D+00  0.00000000D+00  0.00000000D+00  0.00000000D+00  0.00000000D+00
  0.00000000D+00 -0.13475383D-02  0.78268449D-02  0.54940665D-02  0.00000000D+00
  0.00000000D+00  0.00000000D+00  0.00000000D+00  0.00000000D+00 -0.44045983D-03
  0.00000000D+00  0.00000000D+00  0.00000000D+00  0.00000000D+00  0.00000000D+00
  0.00000000D+00  0.00000000D+00
MO    4     MO 0.0        OCC NO =    2.0000000  ORB. ENERGY =   -6.673172
  0.00000000D+00  0.00000000D+00  0.00000000D+00  0.00000000D+00  0.00000000D+00
  0.00000000D+00  0.00000000D+00  0.00000000D+00  0.00000000D+00  0.00000000D+00
  0.00000000D+00  0.00000000D+00  0.11052998D+02  0.13857747D+02  0.14143999D+02
  0.10139438D+02  0.43555064D+01  0.79280049D+00  0.00000000D+00  0.00000000D+00
  0.00000000D+00  0.00000000D+00  0.00000000D+00  0.00000000D+00  0.00000000D+00
  0.00000000D+00  0.00000000D+00  0.00000000D+00  0.00000000D+00  0.00000000D+00
  0.00000000D+00  0.00000000D+00  0.00000000D+00 -0.15508687D-02  0.90078397D-02
  0.63230677D-02  0.00000000D+00  0.00000000D+00  0.00000000D+00  0.00000000D+00
  0.00000000D+00  0.00000000D+00  0.00000000D+00 -0.52167057D-03  0.00000000D+00
  0.00000000D+00  0.00000000D+00  0.00000000D+00  0.00000000D+00  0.00000000D+00
  0.00000000D+00  0.00000000D+00
MO    5     MO 0.0        OCC NO =    2.0000000  ORB. ENERGY =   -6.673172
  0.00000000D+00  0.00000000D+00  0.00000000D+00  0.00000000D+00  0.00000000D+00
  0.00000000D+00  0.00000000D+00  0.00000000D+00  0.00000000D+00  0.00000000D+00
  0.00000000D+00  0.00000000D+00  0.00000000D+00  0.00000000D+00  0.00000000D+00
  0.00000000D+00  0.00000000D+00  0.00000000D+00  0.00000000D+00  0.00000000D+00
  0.00000000D+00  0.00000000D+00  0.00000000D+00  0.00000000D+00  0.11052998D+02
  0.13857747D+02  0.14143999D+02  0.10139438D+02  0.43555064D+01  0.79280049D+00
  0.00000000D+00  0.00000000D+00  0.00000000D+00  0.00000000D+00  0.00000000D+00
  0.00000000D+00  0.00000000D+00  0.00000000D+00  0.00000000D+00 -0.15508687D-02
  0.90078397D-02  0.63230677D-02  0.00000000D+00  0.00000000D+00  0.00000000D+00
 -0.52167057D-03  0.00000000D+00  0.00000000D+00  0.00000000D+00  0.00000000D+00
  0.00000000D+00  0.00000000D+00
MO    6     MO 0.0        OCC NO =    2.0000000  ORB. ENERGY =   -0.842714
  0.18759975D+00  0.34532373D+00  0.55883108D+00  0.74009428D+00  0.63758021D+00
  0.19816002D+00  0.57168999D-01  0.25948991D+00  0.39412480D+00 -0.92016905D-01
 -0.48153131D+00 -0.18741077D+00  0.00000000D+00  0.00000000D+00  0.00000000D+00
  0.00000000D+00  0.00000000D+00  0.00000000D+00  0.00000000D+00  0.00000000D+00
  0.00000000D+00  0.00000000D+00  0.00000000D+00  0.00000000D+00  0.00000000D+00
  0.00000000D+00  0.00000000D+00  0.00000000D+00  0.00000000D+00  0.00000000D+00
 -0.27789175D+00  0.34000180D-01  0.25407887D+00  0.00000000D+00  0.00000000D+00
  0.00000000D+00  0.00000000D+00  0.00000000D+00  0.00000000D+00  0.00000000D+00
  0.00000000D+00  0.00000000D+00  0.48035615D-01  0.00000000D+00  0.00000000D+00
  0.00000000D+00  0.23870052D-03  0.16460207D-02  0.23870052D-03  0.00000000D+00
  0.00000000D+00  0.00000000D+00
MO    7     MO 0.0        OCC NO =    1.3333333  ORB. ENERGY =   -0.385740
  0.00000000D+00  0.00000000D+00  0.00000000D+00  0.00000000D+00  0.00000000D+00
  0.00000000D+00  0.00000000D+00  0.00000000D+00  0.00000000D+00  0.00000000D+00
  0.00000000D+00  0.00000000D+00  0.00000000D+00  0.00000000D+00  0.00000000D+00
  0.00000000D+00  0.00000000D+00  0.00000000D+00 -0.29360836D+01 -0.36811281D+01
 -0.37571673D+01 -0.26934083D+01 -0.11569830D+01 -0.21059702D+00  0.00000000D+00
  0.00000000D+00  0.00000000D+00  0.00000000D+00  0.00000000D+00  0.00000000D+00
  0.00000000D+00  0.00000000D+00  0.00000000D+00  0.00000000D+00  0.00000000D+00
  0.00000000D+00 -0.48908445D-01  0.28407268D+00  0.19940528D+00  0.00000000D+00
  0.00000000D+00  0.00000000D+00  0.00000000D+00  0.00000000D+00  0.41176882D-01
  0.00000000D+00  0.00000000D+00  0.00000000D+00  0.00000000D+00  0.00000000D+00
  0.00000000D+00  0.00000000D+00
MO    8     MO 0.0        OCC NO =    1.3333333  ORB. ENERGY =   -0.149309
  0.00000000D+00  0.00000000D+00  0.00000000D+00  0.00000000D+00  0.00000000D+00
  0.00000000D+00  0.00000000D+00  0.00000000D+00  0.00000000D+00  0.00000000D+00
  0.00000000D+00  0.00000000D+00 -0.30658702D+01 -0.38438487D+01 -0.39232491D+01
 -0.28124677D+01 -0.12081262D+01 -0.21990625D+00  0.00000000D+00  0.00000000D+00
  0.00000000D+00  0.00000000D+00  0.00000000D+00  0.00000000D+00  0.00000000D+00
  0.00000000D+00  0.00000000D+00  0.00000000D+00  0.00000000D+00  0.00000000D+00
  0.00000000D+00  0.00000000D+00  0.00000000D+00 -0.51648275D-01  0.29998631D+00
  0.21057587D+00  0.00000000D+00  0.00000000D+00  0.00000000D+00  0.00000000D+00
  0.00000000D+00  0.00000000D+00  0.00000000D+00  0.37006859D-01  0.00000000D+00
  0.00000000D+00  0.00000000D+00  0.00000000D+00  0.00000000D+00  0.00000000D+00
  0.00000000D+00  0.00000000D+00
MO    9     MO 0.0        OCC NO =    1.3333333  ORB. ENERGY =   -0.149309
  0.00000000D+00  0.00000000D+00  0.00000000D+00  0.00000000D+00  0.00000000D+00
  0.00000000D+00  0.00000000D+00  0.00000000D+00  0.00000000D+00  0.00000000D+00
  0.00000000D+00  0.00000000D+00  0.00000000D+00  0.00000000D+00  0.00000000D+00
  0.00000000D+00  0.00000000D+00  0.00000000D+00  0.00000000D+00  0.00000000D+00
  0.00000000D+00  0.00000000D+00  0.00000000D+00  0.00000000D+00 -0.30658702D+01
 -0.38438487D+01 -0.39232491D+01 -0.28124677D+01 -0.12081262D+01 -0.21990625D+00
  0.00000000D+00  0.00000000D+00  0.00000000D+00  0.00000000D+00  0.00000000D+00
  0.00000000D+00  0.00000000D+00  0.00000000D+00  0.00000000D+00 -0.51648275D-01
  0.29998631D+00  0.21057587D+00  0.00000000D+00  0.00000000D+00  0.00000000D+00
  0.37006859D-01  0.00000000D+00  0.00000000D+00  0.00000000D+00  0.00000000D+00
  0.00000000D+00  0.00000000D+00
END DATA
 THE  HF ENERGY =   -397.472327545502 THE VIRIAL(-V/T)=   2.00041782
