 Generated by Multiwfn
GAUSSIAN              9 MOL ORBITALS     52 PRIMITIVES        1 NUCLEI
  Si   1    (CENTRE  1)   0.00000000  0.00000000  0.00000000  CHARGE = 14.0
CENTRE ASSIGNMENTS    1  1  1  1  1  1  1  1  1  1  1  1  1  1  1  1  1  1  1  1
CENTRE ASSIGNMENTS    1  1  1  1  1  1  1  1  1  1  1  1  1  1  1  1  1  1  1  1
CENTRE ASSIGNMENTS    1  1  1  1  1  1  1  1  1  1  1  1
TYPE ASSIGNMENTS      1  1  1  1  1  1  1  1  1  1  1  1  2  2  2  2  2  2  3  3
TYPE ASSIGNMENTS      3  3  3  3  4  4  4  4  4  4  1  1  1  2  2  2  3  3  3  4
TYPE ASSIGNMENTS      4  4  1  2  3  4  5  6  7  8  9 10
EXPONENTS  0.1611590D+05 0.2425580D+04 0.5538670D+03 0.1563400D+03 0.5006830D+02
EXPONENTS  0.1701780D+02 0.2927180D+03 0.6987310D+02 0.2233630D+02 0.8150390D+01
EXPONENTS  0.3134580D+01 0.1225430D+01 0.2927180D+03 0.6987310D+02 0.2233630D+02
EXPONENTS  0.8150390D+01 0.3134580D+01 0.1225430D+01 0.2927180D+03 0.6987310D+02
EXPONENTS  0.2233630D+02 0.8150390D+01 0.3134580D+01 0.1225430D+01 0.2927180D+03
EXPONENTS  0.6987310D+02 0.2233630D+02 0.8150390D+01 0.3134580D+01 0.1225430D+01
EXPONENTS  0.1727380D+01 0.5729220D+00 0.2221920D+00 0.1727380D+01 0.5729220D+00
EXPONENTS  0.2221920D+00 0.1727380D+01 0.5729220D+00 0.2221920D+00 0.1727380D+01
EXPONENTS  0.5729220D+00 0.2221920D+00 0.7783690D-01 0.7783690D-01 0.7783690D-01
EXPONENTS  0.7783690D-01 0.4500000D+00 0.4500000D+00 0.4500000D+00 0.4500000D+00
EXPONENTS  0.4500000D+00 0.4500000D+00
MO    1     MO 0.0        OCC NO =    2.0000000  ORB. ENERGY =  -68.811149
  0.19911237D+01  0.36656676D+01  0.59086333D+01  0.77309633D+01  0.64975260D+01
  0.19345505D+01 -0.17096616D-02 -0.74982473D-02 -0.10263159D-01  0.39207689D-02
  0.12340863D-01  0.42390581D-02  0.00000000D+00  0.00000000D+00  0.00000000D+00
  0.00000000D+00  0.00000000D+00  0.00000000D+00  0.00000000D+00  0.00000000D+00
  0.00000000D+00  0.00000000D+00  0.00000000D+00  0.00000000D+00  0.00000000D+00
  0.00000000D+00  0.00000000D+00  0.00000000D+00  0.00000000D+00  0.00000000D+00
  0.56220005D-02 -0.43347607D-04 -0.54207589D-02  0.00000000D+00  0.00000000D+00
  0.00000000D+00  0.00000000D+00  0.00000000D+00  0.00000000D+00  0.00000000D+00
  0.00000000D+00  0.00000000D+00  0.39008059D-03  0.00000000D+00  0.00000000D+00
  0.00000000D+00  0.29962093D-02  0.29962093D-02  0.29962093D-02  0.00000000D+00
  0.00000000D+00  0.00000000D+00
MO    2     MO 0.0        OCC NO =    2.0000000  ORB. ENERGY =   -6.162381
 -0.53888347D+00 -0.99208688D+00 -0.15991296D+01 -0.20923303D+01 -0.17585092D+01
 -0.52357235D+00 -0.14446049D+00 -0.63357596D+00 -0.86720147D+00  0.33129141D+00
  0.10427602D+01  0.35818574D+00  0.00000000D+00  0.00000000D+00  0.00000000D+00
  0.00000000D+00  0.00000000D+00  0.00000000D+00  0.00000000D+00  0.00000000D+00
  0.00000000D+00  0.00000000D+00  0.00000000D+00  0.00000000D+00  0.00000000D+00
  0.00000000D+00  0.00000000D+00  0.00000000D+00  0.00000000D+00  0.00000000D+00
 -0.46754207D-02  0.36049144D-04  0.45080623D-02  0.00000000D+00  0.00000000D+00
  0.00000000D+00  0.00000000D+00  0.00000000D+00  0.00000000D+00  0.00000000D+00
  0.00000000D+00  0.00000000D+00 -0.47748184D-03  0.00000000D+00  0.00000000D+00
  0.00000000D+00 -0.66050750D-03 -0.66050750D-03 -0.66050750D-03  0.00000000D+00
  0.00000000D+00  0.00000000D+00
MO    3     MO 0.0        OCC NO =    2.0000000  ORB. ENERGY =   -4.271254
  0.00000000D+00  0.00000000D+00  0.00000000D+00  0.00000000D+00  0.00000000D+00
  0.00000000D+00  0.00000000D+00  0.00000000D+00  0.00000000D+00  0.00000000D+00
  0.00000000D+00  0.00000000D+00  0.00000000D+00  0.00000000D+00  0.00000000D+00
  0.00000000D+00  0.00000000D+00  0.00000000D+00  0.00000000D+00  0.00000000D+00
  0.00000000D+00  0.00000000D+00  0.00000000D+00  0.00000000D+00  0.76203708D+01
  0.93585876D+01  0.92768582D+01  0.64186723D+01  0.26594432D+01  0.47788266D+00
  0.00000000D+00  0.00000000D+00  0.00000000D+00  0.00000000D+00  0.00000000D+00
  0.00000000D+00  0.00000000D+00  0.00000000D+00  0.00000000D+00 -0.97124347D-03
  0.34830280D-02  0.33663274D-02  0.00000000D+00  0.00000000D+00  0.00000000D+00
 -0.32652301D-03  0.00000000D+00  0.00000000D+00  0.00000000D+00  0.00000000D+00
  0.00000000D+00  0.00000000D+00
MO    4     MO 0.0        OCC NO =    2.0000000  ORB. ENERGY =   -4.271254
  0.00000000D+00  0.00000000D+00  0.00000000D+00  0.00000000D+00  0.00000000D+00
  0.00000000D+00  0.00000000D+00  0.00000000D+00  0.00000000D+00  0.00000000D+00
  0.00000000D+00  0.00000000D+00  0.00000000D+00  0.00000000D+00  0.00000000D+00
  0.00000000D+00  0.00000000D+00  0.00000000D+00  0.76203708D+01  0.93585876D+01
  0.92768582D+01  0.64186723D+01  0.26594432D+01  0.47788266D+00  0.00000000D+00
  0.00000000D+00  0.00000000D+00  0.00000000D+00  0.00000000D+00  0.00000000D+00
  0.00000000D+00  0.00000000D+00  0.00000000D+00  0.00000000D+00  0.00000000D+00
  0.00000000D+00 -0.97124347D-03  0.34830280D-02  0.33663274D-02  0.00000000D+00
  0.00000000D+00  0.00000000D+00  0.00000000D+00  0.00000000D+00 -0.32652301D-03
  0.00000000D+00  0.00000000D+00  0.00000000D+00  0.00000000D+00  0.00000000D+00
  0.00000000D+00  0.00000000D+00
MO    5     MO 0.0        OCC NO =    2.0000000  ORB. ENERGY =   -4.271254
  0.00000000D+00  0.00000000D+00  0.00000000D+00  0.00000000D+00  0.00000000D+00
  0.00000000D+00  0.00000000D+00  0.00000000D+00  0.00000000D+00  0.00000000D+00
  0.00000000D+00  0.00000000D+00  0.76203708D+01  0.93585876D+01  0.92768582D+01
  0.64186723D+01  0.26594432D+01  0.47788266D+00  0.00000000D+00  0.00000000D+00
  0.00000000D+00  0.00000000D+00  0.00000000D+00  0.00000000D+00  0.00000000D+00
  0.00000000D+00  0.00000000D+00  0.00000000D+00  0.00000000D+00  0.00000000D+00
  0.00000000D+00  0.00000000D+00  0.00000000D+00 -0.97124347D-03  0.34830280D-02
  0.33663274D-02  0.00000000D+00  0.00000000D+00  0.00000000D+00  0.00000000D+00
  0.00000000D+00  0.00000000D+00  0.00000000D+00 -0.32652301D-03  0.00000000D+00
  0.00000000D+00  0.00000000D+00  0.00000000D+00  0.00000000D+00  0.00000000D+00
  0.00000000D+00  0.00000000D+00
MO    6     MO 0.0        OCC NO =    1.0000000  ORB. ENERGY =   -0.259979
  0.13421121D+00  0.24708344D+00  0.39827000D+00  0.52110371D+00  0.43796417D+00
  0.13039791D+00  0.43983271D-01  0.19290218D+00  0.26403314D+00 -0.10086689D+00
 -0.31748478D+00 -0.10905529D+00  0.00000000D+00  0.00000000D+00  0.00000000D+00
  0.00000000D+00  0.00000000D+00  0.00000000D+00  0.00000000D+00  0.00000000D+00
  0.00000000D+00  0.00000000D+00  0.00000000D+00  0.00000000D+00  0.00000000D+00
  0.00000000D+00  0.00000000D+00  0.00000000D+00  0.00000000D+00  0.00000000D+00
 -0.17964404D+00  0.13851190D-02  0.17321362D+00  0.00000000D+00  0.00000000D+00
  0.00000000D+00  0.00000000D+00  0.00000000D+00  0.00000000D+00  0.00000000D+00
  0.00000000D+00  0.00000000D+00  0.38193582D-01  0.00000000D+00  0.00000000D+00
  0.00000000D+00  0.64039255D-02  0.64039255D-02  0.64039255D-02  0.00000000D+00
  0.00000000D+00  0.00000000D+00
MO    7     MO 0.0        OCC NO =    1.0000000  ORB. ENERGY =   -0.065547
  0.00000000D+00  0.00000000D+00  0.00000000D+00  0.00000000D+00  0.00000000D+00
  0.00000000D+00  0.00000000D+00  0.00000000D+00  0.00000000D+00  0.00000000D+00
  0.00000000D+00  0.00000000D+00  0.00000000D+00  0.00000000D+00  0.00000000D+00
  0.00000000D+00  0.00000000D+00  0.00000000D+00 -0.18174483D+01 -0.22320107D+01
 -0.22125184D+01 -0.15308448D+01 -0.63427367D+00 -0.11397438D+00  0.00000000D+00
  0.00000000D+00  0.00000000D+00  0.00000000D+00  0.00000000D+00  0.00000000D+00
  0.00000000D+00  0.00000000D+00  0.00000000D+00  0.00000000D+00  0.00000000D+00
  0.00000000D+00 -0.34962676D-01  0.12538152D+00  0.12118055D+00  0.00000000D+00
  0.00000000D+00  0.00000000D+00  0.00000000D+00  0.00000000D+00  0.24723707D-01
  0.00000000D+00  0.00000000D+00  0.00000000D+00  0.00000000D+00  0.00000000D+00
  0.00000000D+00  0.00000000D+00
MO    8     MO 0.0        OCC NO =    1.0000000  ORB. ENERGY =   -0.065547
  0.00000000D+00  0.00000000D+00  0.00000000D+00  0.00000000D+00  0.00000000D+00
  0.00000000D+00  0.00000000D+00  0.00000000D+00  0.00000000D+00  0.00000000D+00
  0.00000000D+00  0.00000000D+00  0.00000000D+00  0.00000000D+00  0.00000000D+00
  0.00000000D+00  0.00000000D+00  0.00000000D+00  0.00000000D+00  0.00000000D+00
  0.00000000D+00  0.00000000D+00  0.00000000D+00  0.00000000D+00 -0.18174483D+01
 -0.22320107D+01 -0.22125184D+01 -0.15308448D+01 -0.63427367D+00 -0.11397438D+00
  0.00000000D+00  0.00000000D+00  0.00000000D+00  0.00000000D+00  0.00000000D+00
  0.00000000D+00  0.00000000D+00  0.00000000D+00  0.00000000D+00 -0.34962676D-01
  0.12538152D+00  0.12118055D+00  0.00000000D+00  0.00000000D+00  0.00000000D+00
  0.24723707D-01  0.00000000D+00  0.00000000D+00  0.00000000D+00  0.00000000D+00
  0.00000000D+00  0.00000000D+00
MO    9     MO 0.0        OCC NO =    1.0000000  ORB. ENERGY =   -0.065547
  0.00000000D+00  0.00000000D+00  0.00000000D+00  0.00000000D+00  0.00000000D+00
  0.00000000D+00  0.00000000D+00  0.00000000D+00  0.00000000D+00  0.00000000D+00
  0.00000000D+00  0.00000000D+00 -0.18174483D+01 -0.22320107D+01 -0.22125184D+01
 -0.15308448D+01 -0.63427367D+00 -0.11397438D+00  0.00000000D+00  0.00000000D+00
  0.00000000D+00  0.00000000D+00  0.00000000D+00  0.00000000D+00  0.00000000D+00
  0.00000000D+00  0.00000000D+00  0.00000000D+00  0.00000000D+00  0.00000000D+00
  0.00000000D+00  0.00000000D+00  0.00000000D+00 -0.34962676D-01  0.12538152D+00
  0.12118055D+00  0.00000000D+00  0.00000000D+00  0.00000000D+00  0.00000000D+00
  0.00000000D+00  0.00000000D+00  0.00000000D+00  0.24723707D-01  0.00000000D+00
  0.00000000D+00  0.00000000D+00  0.00000000D+00  0.00000000D+00  0.00000000D+00
  0.00000000D+00  0.00000000D+00
END DATA
 THE  HF ENERGY =   -288.737816091891 THE VIRIAL(-V/T)=   1.99997466
