 Generated by Multiwfn
GAUSSIAN             26 MOL ORBITALS    104 PRIMITIVES        1 NUCLEI
  Ti   1    (CENTRE  1)   0.00000000  0.00000000  0.00000000  CHARGE = 22.0
CENTRE ASSIGNMENTS    1  1  1  1  1  1  1  1  1  1  1  1  1  1  1  1  1  1  1  1
CENTRE ASSIGNMENTS    1  1  1  1  1  1  1  1  1  1  1  1  1  1  1  1  1  1  1  1
CENTRE ASSIGNMENTS    1  1  1  1  1  1  1  1  1  1  1  1  1  1  1  1  1  1  1  1
CENTRE ASSIGNMENTS    1  1  1  1  1  1  1  1  1  1  1  1  1  1  1  1  1  1  1  1
CENTRE ASSIGNMENTS    1  1  1  1  1  1  1  1  1  1  1  1  1  1  1  1  1  1  1  1
CENTRE ASSIGNMENTS    1  1  1  1
TYPE ASSIGNMENTS      1  1  1  1  1  1  1  1  1  1  1  1  2  2  2  2  2  2  3  3
TYPE ASSIGNMENTS      3  3  3  3  4  4  4  4  4  4  1  1  1  1  1  1  2  2  2  2
TYPE ASSIGNMENTS      2  2  3  3  3  3  3  3  4  4  4  4  4  4  1  1  1  2  2  2
TYPE ASSIGNMENTS      3  3  3  4  4  4  1  2  3  4  5  5  5  6  6  6  7  7  7  8
TYPE ASSIGNMENTS      8  8  9  9  9 10 10 10  5  6  7  8  9 10 11 12 13 17 14 15
TYPE ASSIGNMENTS     18 19 16 20
EXPONENTS  0.4315295D+05 0.6479571D+04 0.1475675D+04 0.4156991D+03 0.1330006D+03
EXPONENTS  0.4527222D+02 0.8746826D+03 0.2079785D+03 0.6687918D+02 0.2487347D+02
EXPONENTS  0.9968441D+01 0.4063826D+01 0.8746826D+03 0.2079785D+03 0.6687918D+02
EXPONENTS  0.2487347D+02 0.9968441D+01 0.4063826D+01 0.8746826D+03 0.2079785D+03
EXPONENTS  0.6687918D+02 0.2487347D+02 0.9968441D+01 0.4063826D+01 0.8746826D+03
EXPONENTS  0.2079785D+03 0.6687918D+02 0.2487347D+02 0.9968441D+01 0.4063826D+01
EXPONENTS  0.3364363D+02 0.1087565D+02 0.4628225D+01 0.1950126D+01 0.8094520D+00
EXPONENTS  0.3204740D+00 0.3364363D+02 0.1087565D+02 0.4628225D+01 0.1950126D+01
EXPONENTS  0.8094520D+00 0.3204740D+00 0.3364363D+02 0.1087565D+02 0.4628225D+01
EXPONENTS  0.1950126D+01 0.8094520D+00 0.3204740D+00 0.3364363D+02 0.1087565D+02
EXPONENTS  0.4628225D+01 0.1950126D+01 0.8094520D+00 0.3204740D+00 0.1224148D+01
EXPONENTS  0.4842630D+00 0.8409600D-01 0.1224148D+01 0.4842630D+00 0.8409600D-01
EXPONENTS  0.1224148D+01 0.4842630D+00 0.8409600D-01 0.1224148D+01 0.4842630D+00
EXPONENTS  0.8409600D-01 0.3203600D-01 0.3203600D-01 0.3203600D-01 0.3203600D-01
EXPONENTS  0.1369085D+02 0.3513154D+01 0.1040434D+01 0.1369085D+02 0.3513154D+01
EXPONENTS  0.1040434D+01 0.1369085D+02 0.3513154D+01 0.1040434D+01 0.1369085D+02
EXPONENTS  0.3513154D+01 0.1040434D+01 0.1369085D+02 0.3513154D+01 0.1040434D+01
EXPONENTS  0.1369085D+02 0.3513154D+01 0.1040434D+01 0.2869620D+00 0.2869620D+00
EXPONENTS  0.2869620D+00 0.2869620D+00 0.2869620D+00 0.2869620D+00 0.8000000D+00
EXPONENTS  0.8000000D+00 0.8000000D+00 0.8000000D+00 0.8000000D+00 0.8000000D+00
EXPONENTS  0.8000000D+00 0.8000000D+00 0.8000000D+00 0.8000000D+00
MO    1     MO 0.0        OCC NO =    1.0000000  ORB. ENERGY = -178.866371
  0.38098625D+01  0.70385356D+01  0.11434468D+02  0.15282935D+02  0.13379582D+02
  0.42912170D+01 -0.34861946D-02 -0.15787034D-01 -0.25908900D-01  0.38768491D-02
  0.30871581D-01  0.11415292D-01  0.00000000D+00  0.00000000D+00  0.00000000D+00
  0.00000000D+00  0.00000000D+00  0.00000000D+00  0.00000000D+00  0.00000000D+00
  0.00000000D+00  0.00000000D+00  0.00000000D+00  0.00000000D+00  0.00000000D+00
  0.00000000D+00  0.00000000D+00  0.00000000D+00  0.00000000D+00  0.00000000D+00
 -0.59808219D-03  0.62463474D-02  0.11619264D-01 -0.71278801D-02 -0.92351746D-02
 -0.11495435D-02  0.00000000D+00  0.00000000D+00  0.00000000D+00  0.00000000D+00
  0.00000000D+00  0.00000000D+00  0.00000000D+00  0.00000000D+00  0.00000000D+00
  0.00000000D+00  0.00000000D+00  0.00000000D+00  0.00000000D+00  0.00000000D+00
  0.00000000D+00  0.00000000D+00  0.00000000D+00  0.00000000D+00 -0.52419905D-05
 -0.12973642D-04  0.12875284D-04  0.00000000D+00  0.00000000D+00  0.00000000D+00
  0.00000000D+00  0.00000000D+00  0.00000000D+00  0.00000000D+00  0.00000000D+00
  0.00000000D+00 -0.38103859D-05  0.00000000D+00  0.00000000D+00  0.00000000D+00
  0.11023685D+00  0.44937412D-01  0.10109355D-01  0.11023685D+00  0.44937412D-01
  0.10109355D-01  0.11023685D+00  0.44937412D-01  0.10109355D-01  0.00000000D+00
  0.00000000D+00  0.00000000D+00  0.00000000D+00  0.00000000D+00  0.00000000D+00
  0.00000000D+00  0.00000000D+00  0.00000000D+00  0.71697345D-04  0.71697345D-04
  0.71697345D-04  0.00000000D+00  0.00000000D+00  0.00000000D+00  0.00000000D+00
  0.00000000D+00  0.00000000D+00  0.00000000D+00  0.00000000D+00  0.00000000D+00
  0.00000000D+00  0.00000000D+00  0.00000000D+00  0.00000000D+00
MO    2     MO 0.0        OCC NO =    1.0000000  ORB. ENERGY =  -19.903754
  0.11281888D+01  0.20842740D+01  0.33860118D+01  0.45256323D+01  0.39620054D+01
  0.12707291D+01  0.28798165D+00  0.13041085D+01  0.21402384D+01 -0.32025218D+00
 -0.25501872D+01 -0.94297507D+00  0.00000000D+00  0.00000000D+00  0.00000000D+00
  0.00000000D+00  0.00000000D+00  0.00000000D+00  0.00000000D+00  0.00000000D+00
  0.00000000D+00  0.00000000D+00  0.00000000D+00  0.00000000D+00  0.00000000D+00
  0.00000000D+00  0.00000000D+00  0.00000000D+00  0.00000000D+00  0.00000000D+00
 -0.18334897D-02  0.19148896D-01  0.35620188D-01 -0.21851336D-01 -0.28311489D-01
 -0.35240576D-02  0.00000000D+00  0.00000000D+00  0.00000000D+00  0.00000000D+00
  0.00000000D+00  0.00000000D+00  0.00000000D+00  0.00000000D+00  0.00000000D+00
  0.00000000D+00  0.00000000D+00  0.00000000D+00  0.00000000D+00  0.00000000D+00
  0.00000000D+00  0.00000000D+00  0.00000000D+00  0.00000000D+00  0.14910852D-03
  0.36903550D-03 -0.36623770D-03  0.00000000D+00  0.00000000D+00  0.00000000D+00
  0.00000000D+00  0.00000000D+00  0.00000000D+00  0.00000000D+00  0.00000000D+00
  0.00000000D+00  0.44649148D-04  0.00000000D+00  0.00000000D+00  0.00000000D+00
  0.26412738D+00  0.10766999D+00  0.24222004D-01  0.26412738D+00  0.10766999D+00
  0.24222004D-01  0.26412738D+00  0.10766999D+00  0.24222004D-01  0.00000000D+00
  0.00000000D+00  0.00000000D+00  0.00000000D+00  0.00000000D+00  0.00000000D+00
  0.00000000D+00  0.00000000D+00  0.00000000D+00  0.54958890D-03  0.54958890D-03
  0.54958890D-03  0.00000000D+00  0.00000000D+00  0.00000000D+00  0.00000000D+00
  0.00000000D+00  0.00000000D+00  0.00000000D+00  0.00000000D+00  0.00000000D+00
  0.00000000D+00  0.00000000D+00  0.00000000D+00  0.00000000D+00
MO    3     MO 0.0        OCC NO =    1.0000000  ORB. ENERGY =  -16.616249
  0.00000000D+00  0.00000000D+00  0.00000000D+00  0.00000000D+00  0.00000000D+00
  0.00000000D+00  0.00000000D+00  0.00000000D+00  0.00000000D+00  0.00000000D+00
  0.00000000D+00  0.00000000D+00  0.27121526D+02  0.34902996D+02  0.36616447D+02
  0.27052165D+02  0.11627676D+02  0.17642573D+01  0.00000000D+00  0.00000000D+00
  0.00000000D+00  0.00000000D+00  0.00000000D+00  0.00000000D+00  0.00000000D+00
  0.00000000D+00  0.00000000D+00  0.00000000D+00  0.00000000D+00  0.00000000D+00
  0.00000000D+00  0.00000000D+00  0.00000000D+00  0.00000000D+00  0.00000000D+00
  0.00000000D+00 -0.93721242D-02 -0.97638552D-02  0.66144064D-02  0.16240722D-01
  0.72148432D-02  0.80031408D-03  0.00000000D+00  0.00000000D+00  0.00000000D+00
  0.00000000D+00  0.00000000D+00  0.00000000D+00  0.00000000D+00  0.00000000D+00
  0.00000000D+00  0.00000000D+00  0.00000000D+00  0.00000000D+00  0.00000000D+00
  0.00000000D+00  0.00000000D+00  0.14166602D-02 -0.16354951D-03 -0.23350220D-03
  0.00000000D+00  0.00000000D+00  0.00000000D+00  0.00000000D+00  0.00000000D+00
  0.00000000D+00  0.00000000D+00  0.37568867D-04  0.00000000D+00  0.00000000D+00
  0.00000000D+00  0.00000000D+00  0.00000000D+00  0.00000000D+00  0.00000000D+00
  0.00000000D+00  0.00000000D+00  0.00000000D+00  0.00000000D+00  0.00000000D+00
  0.00000000D+00  0.00000000D+00  0.00000000D+00  0.00000000D+00  0.00000000D+00
  0.00000000D+00  0.00000000D+00  0.00000000D+00  0.00000000D+00  0.00000000D+00
  0.00000000D+00  0.00000000D+00  0.00000000D+00  0.00000000D+00  0.21163228D-03
  0.00000000D+00  0.00000000D+00 -0.31744842D-03  0.00000000D+00  0.00000000D+00
 -0.31744842D-03  0.00000000D+00  0.00000000D+00  0.00000000D+00
MO    4     MO 0.0        OCC NO =    1.0000000  ORB. ENERGY =  -16.616249
  0.00000000D+00  0.00000000D+00  0.00000000D+00  0.00000000D+00  0.00000000D+00
  0.00000000D+00  0.00000000D+00  0.00000000D+00  0.00000000D+00  0.00000000D+00
  0.00000000D+00  0.00000000D+00  0.00000000D+00  0.00000000D+00  0.00000000D+00
  0.00000000D+00  0.00000000D+00  0.00000000D+00  0.27121526D+02  0.34902996D+02
  0.36616447D+02  0.27052165D+02  0.11627676D+02  0.17642573D+01  0.00000000D+00
  0.00000000D+00  0.00000000D+00  0.00000000D+00  0.00000000D+00  0.00000000D+00
  0.00000000D+00  0.00000000D+00  0.00000000D+00  0.00000000D+00  0.00000000D+00
  0.00000000D+00  0.00000000D+00  0.00000000D+00  0.00000000D+00  0.00000000D+00
  0.00000000D+00  0.00000000D+00 -0.93721242D-02 -0.97638552D-02  0.66144064D-02
  0.16240722D-01  0.72148432D-02  0.80031408D-03  0.00000000D+00  0.00000000D+00
  0.00000000D+00  0.00000000D+00  0.00000000D+00  0.00000000D+00  0.00000000D+00
  0.00000000D+00  0.00000000D+00  0.00000000D+00  0.00000000D+00  0.00000000D+00
  0.14166602D-02 -0.16354951D-03 -0.23350220D-03  0.00000000D+00  0.00000000D+00
  0.00000000D+00  0.00000000D+00  0.00000000D+00  0.37568867D-04  0.00000000D+00
  0.00000000D+00  0.00000000D+00  0.00000000D+00  0.00000000D+00  0.00000000D+00
  0.00000000D+00  0.00000000D+00  0.00000000D+00  0.00000000D+00  0.00000000D+00
  0.00000000D+00  0.00000000D+00  0.00000000D+00  0.00000000D+00  0.00000000D+00
  0.00000000D+00  0.00000000D+00  0.00000000D+00  0.00000000D+00  0.00000000D+00
  0.00000000D+00  0.00000000D+00  0.00000000D+00  0.00000000D+00  0.00000000D+00
  0.21163228D-03  0.00000000D+00  0.00000000D+00 -0.31744842D-03  0.00000000D+00
  0.00000000D+00 -0.31744842D-03  0.00000000D+00  0.00000000D+00
MO    5     MO 0.0        OCC NO =    1.0000000  ORB. ENERGY =  -16.616249
  0.00000000D+00  0.00000000D+00  0.00000000D+00  0.00000000D+00  0.00000000D+00
  0.00000000D+00  0.00000000D+00  0.00000000D+00  0.00000000D+00  0.00000000D+00
  0.00000000D+00  0.00000000D+00  0.00000000D+00  0.00000000D+00  0.00000000D+00
  0.00000000D+00  0.00000000D+00  0.00000000D+00  0.00000000D+00  0.00000000D+00
  0.00000000D+00  0.00000000D+00  0.00000000D+00  0.00000000D+00  0.27121526D+02
  0.34902996D+02  0.36616447D+02  0.27052165D+02  0.11627676D+02  0.17642573D+01
  0.00000000D+00  0.00000000D+00  0.00000000D+00  0.00000000D+00  0.00000000D+00
  0.00000000D+00  0.00000000D+00  0.00000000D+00  0.00000000D+00  0.00000000D+00
  0.00000000D+00  0.00000000D+00  0.00000000D+00  0.00000000D+00  0.00000000D+00
  0.00000000D+00  0.00000000D+00  0.00000000D+00 -0.93721242D-02 -0.97638552D-02
  0.66144064D-02  0.16240722D-01  0.72148432D-02  0.80031408D-03  0.00000000D+00
  0.00000000D+00  0.00000000D+00  0.00000000D+00  0.00000000D+00  0.00000000D+00
  0.00000000D+00  0.00000000D+00  0.00000000D+00  0.14166602D-02 -0.16354951D-03
 -0.23350220D-03  0.00000000D+00  0.00000000D+00  0.00000000D+00  0.37568867D-04
  0.00000000D+00  0.00000000D+00  0.00000000D+00  0.00000000D+00  0.00000000D+00
  0.00000000D+00  0.00000000D+00  0.00000000D+00  0.00000000D+00  0.00000000D+00
  0.00000000D+00  0.00000000D+00  0.00000000D+00  0.00000000D+00  0.00000000D+00
  0.00000000D+00  0.00000000D+00  0.00000000D+00  0.00000000D+00  0.00000000D+00
  0.00000000D+00  0.00000000D+00  0.00000000D+00  0.00000000D+00  0.00000000D+00
  0.00000000D+00  0.21163228D-03  0.00000000D+00  0.00000000D+00 -0.31744842D-03
  0.00000000D+00  0.00000000D+00 -0.31744842D-03  0.00000000D+00
MO    6     MO 0.0        OCC NO =    1.0000000  ORB. ENERGY =   -2.408448
 -0.40976459D+00 -0.75702016D+00 -0.12298187D+01 -0.16437353D+01 -0.14390229D+01
 -0.46153603D+00 -0.12018015D+00 -0.54422896D+00 -0.89316166D+00  0.13364724D+00
  0.10642410D+01  0.39352119D+00  0.00000000D+00  0.00000000D+00  0.00000000D+00
  0.00000000D+00  0.00000000D+00  0.00000000D+00  0.00000000D+00  0.00000000D+00
  0.00000000D+00  0.00000000D+00  0.00000000D+00  0.00000000D+00  0.00000000D+00
  0.00000000D+00  0.00000000D+00  0.00000000D+00  0.00000000D+00  0.00000000D+00
 -0.31339102D-01  0.32730438D+00  0.60884155D+00 -0.37349610D+00 -0.48391690D+00
 -0.60235300D-01  0.00000000D+00  0.00000000D+00  0.00000000D+00  0.00000000D+00
  0.00000000D+00  0.00000000D+00  0.00000000D+00  0.00000000D+00  0.00000000D+00
  0.00000000D+00  0.00000000D+00  0.00000000D+00  0.00000000D+00  0.00000000D+00
  0.00000000D+00  0.00000000D+00  0.00000000D+00  0.00000000D+00 -0.19259366D-03
 -0.47665886D-03  0.47304513D-03  0.00000000D+00  0.00000000D+00  0.00000000D+00
  0.00000000D+00  0.00000000D+00  0.00000000D+00  0.00000000D+00  0.00000000D+00
  0.00000000D+00 -0.77795131D-04  0.00000000D+00  0.00000000D+00  0.00000000D+00
 -0.32284656D-01 -0.13160652D-01 -0.29606891D-02 -0.32284656D-01 -0.13160652D-01
 -0.29606891D-02 -0.32284656D-01 -0.13160652D-01 -0.29606891D-02  0.00000000D+00
  0.00000000D+00  0.00000000D+00  0.00000000D+00  0.00000000D+00  0.00000000D+00
  0.00000000D+00  0.00000000D+00  0.00000000D+00 -0.19333039D-03 -0.19333039D-03
 -0.19333039D-03  0.00000000D+00  0.00000000D+00  0.00000000D+00  0.00000000D+00
  0.00000000D+00  0.00000000D+00  0.00000000D+00  0.00000000D+00  0.00000000D+00
  0.00000000D+00  0.00000000D+00  0.00000000D+00  0.00000000D+00
MO    7     MO 0.0        OCC NO =    1.0000000  ORB. ENERGY =   -1.520975
  0.00000000D+00  0.00000000D+00  0.00000000D+00  0.00000000D+00  0.00000000D+00
  0.00000000D+00  0.00000000D+00  0.00000000D+00  0.00000000D+00  0.00000000D+00
  0.00000000D+00  0.00000000D+00  0.00000000D+00  0.00000000D+00  0.00000000D+00
  0.00000000D+00  0.00000000D+00  0.00000000D+00 -0.96380480D+01 -0.12403312D+02
 -0.13012213D+02 -0.96133993D+01 -0.41320721D+01 -0.62695574D+00  0.00000000D+00
  0.00000000D+00  0.00000000D+00  0.00000000D+00  0.00000000D+00  0.00000000D+00
  0.00000000D+00  0.00000000D+00  0.00000000D+00  0.00000000D+00  0.00000000D+00
  0.00000000D+00  0.00000000D+00  0.00000000D+00  0.00000000D+00  0.00000000D+00
  0.00000000D+00  0.00000000D+00 -0.77015187D+00 -0.80234227D+00  0.54353713D+00
  0.13345771D+01  0.59287787D+00  0.65765602D-01  0.00000000D+00  0.00000000D+00
  0.00000000D+00  0.00000000D+00  0.00000000D+00  0.00000000D+00  0.00000000D+00
  0.00000000D+00  0.00000000D+00  0.00000000D+00  0.00000000D+00  0.00000000D+00
 -0.31034135D-03  0.35828054D-04  0.51152274D-04  0.00000000D+00  0.00000000D+00
  0.00000000D+00  0.00000000D+00  0.00000000D+00  0.30569510D-04  0.00000000D+00
  0.00000000D+00  0.00000000D+00  0.00000000D+00  0.00000000D+00  0.00000000D+00
  0.00000000D+00  0.00000000D+00  0.00000000D+00  0.00000000D+00  0.00000000D+00
  0.00000000D+00  0.00000000D+00  0.00000000D+00  0.00000000D+00  0.00000000D+00
  0.00000000D+00  0.00000000D+00  0.00000000D+00  0.00000000D+00  0.00000000D+00
  0.00000000D+00  0.00000000D+00  0.00000000D+00  0.00000000D+00  0.00000000D+00
  0.74023076D-02  0.00000000D+00  0.00000000D+00 -0.11103461D-01  0.00000000D+00
  0.00000000D+00 -0.11103461D-01  0.00000000D+00  0.00000000D+00
MO    8     MO 0.0        OCC NO =    1.0000000  ORB. ENERGY =   -1.520975
  0.00000000D+00  0.00000000D+00  0.00000000D+00  0.00000000D+00  0.00000000D+00
  0.00000000D+00  0.00000000D+00  0.00000000D+00  0.00000000D+00  0.00000000D+00
  0.00000000D+00  0.00000000D+00 -0.96380480D+01 -0.12403312D+02 -0.13012213D+02
 -0.96133993D+01 -0.41320721D+01 -0.62695574D+00  0.00000000D+00  0.00000000D+00
  0.00000000D+00  0.00000000D+00  0.00000000D+00  0.00000000D+00  0.00000000D+00
  0.00000000D+00  0.00000000D+00  0.00000000D+00  0.00000000D+00  0.00000000D+00
  0.00000000D+00  0.00000000D+00  0.00000000D+00  0.00000000D+00  0.00000000D+00
  0.00000000D+00 -0.77015187D+00 -0.80234227D+00  0.54353713D+00  0.13345771D+01
  0.59287787D+00  0.65765602D-01  0.00000000D+00  0.00000000D+00  0.00000000D+00
  0.00000000D+00  0.00000000D+00  0.00000000D+00  0.00000000D+00  0.00000000D+00
  0.00000000D+00  0.00000000D+00  0.00000000D+00  0.00000000D+00  0.00000000D+00
  0.00000000D+00  0.00000000D+00 -0.31034135D-03  0.35828054D-04  0.51152274D-04
  0.00000000D+00  0.00000000D+00  0.00000000D+00  0.00000000D+00  0.00000000D+00
  0.00000000D+00  0.00000000D+00  0.30569510D-04  0.00000000D+00  0.00000000D+00
  0.00000000D+00  0.00000000D+00  0.00000000D+00  0.00000000D+00  0.00000000D+00
  0.00000000D+00  0.00000000D+00  0.00000000D+00  0.00000000D+00  0.00000000D+00
  0.00000000D+00  0.00000000D+00  0.00000000D+00  0.00000000D+00  0.00000000D+00
  0.00000000D+00  0.00000000D+00  0.00000000D+00  0.00000000D+00  0.00000000D+00
  0.00000000D+00  0.00000000D+00  0.00000000D+00  0.00000000D+00  0.74023076D-02
  0.00000000D+00  0.00000000D+00 -0.11103461D-01  0.00000000D+00  0.00000000D+00
 -0.11103461D-01  0.00000000D+00  0.00000000D+00  0.00000000D+00
MO    9     MO 0.0        OCC NO =    1.0000000  ORB. ENERGY =   -1.520975
  0.00000000D+00  0.00000000D+00  0.00000000D+00  0.00000000D+00  0.00000000D+00
  0.00000000D+00  0.00000000D+00  0.00000000D+00  0.00000000D+00  0.00000000D+00
  0.00000000D+00  0.00000000D+00  0.00000000D+00  0.00000000D+00  0.00000000D+00
  0.00000000D+00  0.00000000D+00  0.00000000D+00  0.00000000D+00  0.00000000D+00
  0.00000000D+00  0.00000000D+00  0.00000000D+00  0.00000000D+00 -0.96380480D+01
 -0.12403312D+02 -0.13012213D+02 -0.96133993D+01 -0.41320721D+01 -0.62695574D+00
  0.00000000D+00  0.00000000D+00  0.00000000D+00  0.00000000D+00  0.00000000D+00
  0.00000000D+00  0.00000000D+00  0.00000000D+00  0.00000000D+00  0.00000000D+00
  0.00000000D+00  0.00000000D+00  0.00000000D+00  0.00000000D+00  0.00000000D+00
  0.00000000D+00  0.00000000D+00  0.00000000D+00 -0.77015187D+00 -0.80234227D+00
  0.54353713D+00  0.13345771D+01  0.59287787D+00  0.65765602D-01  0.00000000D+00
  0.00000000D+00  0.00000000D+00  0.00000000D+00  0.00000000D+00  0.00000000D+00
  0.00000000D+00  0.00000000D+00  0.00000000D+00 -0.31034135D-03  0.35828054D-04
  0.51152274D-04  0.00000000D+00  0.00000000D+00  0.00000000D+00  0.30569510D-04
  0.00000000D+00  0.00000000D+00  0.00000000D+00  0.00000000D+00  0.00000000D+00
  0.00000000D+00  0.00000000D+00  0.00000000D+00  0.00000000D+00  0.00000000D+00
  0.00000000D+00  0.00000000D+00  0.00000000D+00  0.00000000D+00  0.00000000D+00
  0.00000000D+00  0.00000000D+00  0.00000000D+00  0.00000000D+00  0.00000000D+00
  0.00000000D+00  0.00000000D+00  0.00000000D+00  0.00000000D+00  0.00000000D+00
  0.00000000D+00  0.74023076D-02  0.00000000D+00  0.00000000D+00 -0.11103461D-01
  0.00000000D+00  0.00000000D+00 -0.11103461D-01  0.00000000D+00
MO   10     MO 0.0        OCC NO =    0.3333333  ORB. ENERGY =   -0.229488
 -0.89469728D-16 -0.16529097D-15 -0.26852380D-15 -0.35890010D-15 -0.31420231D-15
 -0.10077372D-15  0.12756680D-17  0.57767900D-17  0.94805822D-17 -0.14186163D-17
 -0.11296526D-16 -0.41770826D-17  0.00000000D+00  0.00000000D+00  0.00000000D+00
  0.00000000D+00  0.00000000D+00  0.00000000D+00  0.00000000D+00  0.00000000D+00
  0.00000000D+00  0.00000000D+00  0.00000000D+00  0.00000000D+00  0.00000000D+00
  0.00000000D+00  0.00000000D+00  0.00000000D+00  0.00000000D+00  0.00000000D+00
  0.27214607D-15 -0.28422832D-14 -0.52871278D-14  0.32434081D-14  0.42022929D-14
  0.52307818D-15  0.00000000D+00  0.00000000D+00  0.00000000D+00  0.00000000D+00
  0.00000000D+00  0.00000000D+00  0.00000000D+00  0.00000000D+00  0.00000000D+00
  0.00000000D+00  0.00000000D+00  0.00000000D+00  0.00000000D+00  0.00000000D+00
  0.00000000D+00  0.00000000D+00  0.00000000D+00  0.00000000D+00  0.57853864D-15
  0.14318518D-14 -0.14209964D-14  0.00000000D+00  0.00000000D+00  0.00000000D+00
  0.00000000D+00  0.00000000D+00  0.00000000D+00  0.00000000D+00  0.00000000D+00
  0.00000000D+00  0.31525634D-15  0.00000000D+00  0.00000000D+00  0.00000000D+00
 -0.82156243D+01 -0.33490515D+01 -0.75342013D+00  0.87945696D+01  0.35850552D+01
  0.80651275D+00 -0.57894532D+00 -0.23600369D+00 -0.53092625D-01  0.00000000D+00
  0.00000000D+00  0.00000000D+00  0.00000000D+00  0.00000000D+00  0.00000000D+00
  0.00000000D+00  0.00000000D+00  0.00000000D+00 -0.72456822D-01  0.77562768D-01
 -0.51059465D-02  0.00000000D+00  0.00000000D+00  0.00000000D+00  0.00000000D+00
  0.00000000D+00  0.00000000D+00  0.00000000D+00  0.00000000D+00  0.00000000D+00
  0.00000000D+00  0.00000000D+00  0.00000000D+00  0.00000000D+00
MO   11     MO 0.0        OCC NO =    0.3333333  ORB. ENERGY =   -0.229488
 -0.20708816D-15 -0.38258530D-15 -0.62152975D-15 -0.83071629D-15 -0.72725803D-15
 -0.23325257D-15 -0.82712671D-15 -0.37455962D-14 -0.61470874D-14  0.91981252D-15
  0.73245221D-14  0.27083665D-14  0.00000000D+00  0.00000000D+00  0.00000000D+00
  0.00000000D+00  0.00000000D+00  0.00000000D+00  0.00000000D+00  0.00000000D+00
  0.00000000D+00  0.00000000D+00  0.00000000D+00  0.00000000D+00  0.00000000D+00
  0.00000000D+00  0.00000000D+00  0.00000000D+00  0.00000000D+00  0.00000000D+00
  0.87461078D-15 -0.91344014D-14 -0.16991533D-13  0.10423519D-13  0.13505139D-13
  0.16810451D-14  0.00000000D+00  0.00000000D+00  0.00000000D+00  0.00000000D+00
  0.00000000D+00  0.00000000D+00  0.00000000D+00  0.00000000D+00  0.00000000D+00
  0.00000000D+00  0.00000000D+00  0.00000000D+00  0.00000000D+00  0.00000000D+00
  0.00000000D+00  0.00000000D+00  0.00000000D+00  0.00000000D+00 -0.27041131D-14
 -0.66925334D-14  0.66417948D-14  0.00000000D+00  0.00000000D+00  0.00000000D+00
  0.00000000D+00  0.00000000D+00  0.00000000D+00  0.00000000D+00  0.00000000D+00
  0.00000000D+00 -0.18131423D-14  0.00000000D+00  0.00000000D+00  0.00000000D+00
 -0.54118014D+01 -0.22060894D+01 -0.49629339D+00 -0.44090387D+01 -0.17973190D+01
 -0.40433427D+00  0.98208400D+01  0.40034083D+01  0.90062767D+00  0.00000000D+00
  0.00000000D+00  0.00000000D+00  0.00000000D+00  0.00000000D+00  0.00000000D+00
  0.00000000D+00  0.00000000D+00  0.00000000D+00 -0.47728805D-01 -0.38885046D-01
  0.86613851D-01  0.00000000D+00  0.00000000D+00  0.00000000D+00  0.00000000D+00
  0.00000000D+00  0.00000000D+00  0.00000000D+00  0.00000000D+00  0.00000000D+00
  0.00000000D+00  0.00000000D+00  0.00000000D+00  0.00000000D+00
MO   12     MO 0.0        OCC NO =    1.0000000  ORB. ENERGY =   -0.180136
  0.10413250D+00  0.19237974D+00  0.31253090D+00  0.41771856D+00  0.36569546D+00
  0.11728906D+00  0.31673543D-01  0.14343183D+00  0.23539324D+00 -0.35222803D-01
 -0.28048129D+00 -0.10371272D+00  0.00000000D+00  0.00000000D+00  0.00000000D+00
  0.00000000D+00  0.00000000D+00  0.00000000D+00  0.00000000D+00  0.00000000D+00
  0.00000000D+00  0.00000000D+00  0.00000000D+00  0.00000000D+00  0.00000000D+00
  0.00000000D+00  0.00000000D+00  0.00000000D+00  0.00000000D+00  0.00000000D+00
  0.10989114D-01 -0.11476988D+00 -0.21349141D+00  0.13096710D+00  0.16968636D+00
  0.21121619D-01  0.00000000D+00  0.00000000D+00  0.00000000D+00  0.00000000D+00
  0.00000000D+00  0.00000000D+00  0.00000000D+00  0.00000000D+00  0.00000000D+00
  0.00000000D+00  0.00000000D+00  0.00000000D+00  0.00000000D+00  0.00000000D+00
  0.00000000D+00  0.00000000D+00  0.00000000D+00  0.00000000D+00  0.30966997D-01
  0.76641639D-01 -0.76060591D-01  0.00000000D+00  0.00000000D+00  0.00000000D+00
  0.00000000D+00  0.00000000D+00  0.00000000D+00  0.00000000D+00  0.00000000D+00
  0.00000000D+00 -0.22867438D-01  0.00000000D+00  0.00000000D+00  0.00000000D+00
 -0.35973688D+00 -0.14664465D+00 -0.32989946D-01 -0.35973688D+00 -0.14664465D+00
 -0.32989946D-01 -0.35973688D+00 -0.14664465D+00 -0.32989946D-01  0.00000000D+00
  0.00000000D+00  0.00000000D+00  0.00000000D+00  0.00000000D+00  0.00000000D+00
  0.00000000D+00  0.00000000D+00  0.00000000D+00 -0.65665145D-02 -0.65665145D-02
 -0.65665145D-02  0.00000000D+00  0.00000000D+00  0.00000000D+00  0.00000000D+00
  0.00000000D+00  0.00000000D+00  0.00000000D+00  0.00000000D+00  0.00000000D+00
  0.00000000D+00  0.00000000D+00  0.00000000D+00  0.00000000D+00
MO   13     MO 0.0        OCC NO =    1.0000000  ORB. ENERGY = -178.866086
  0.38098672D+01  0.70385443D+01  0.11434482D+02  0.15282954D+02  0.13379599D+02
  0.42912223D+01 -0.34850154D-02 -0.15781694D-01 -0.25900136D-01  0.38755377D-02
  0.30861139D-01  0.11411430D-01  0.00000000D+00  0.00000000D+00  0.00000000D+00
  0.00000000D+00  0.00000000D+00  0.00000000D+00  0.00000000D+00  0.00000000D+00
  0.00000000D+00  0.00000000D+00  0.00000000D+00  0.00000000D+00  0.00000000D+00
  0.00000000D+00  0.00000000D+00  0.00000000D+00  0.00000000D+00  0.00000000D+00
 -0.59795914D-03  0.62450623D-02  0.11616873D-01 -0.71264136D-02 -0.92332746D-02
 -0.11493070D-02  0.00000000D+00  0.00000000D+00  0.00000000D+00  0.00000000D+00
  0.00000000D+00  0.00000000D+00  0.00000000D+00  0.00000000D+00  0.00000000D+00
  0.00000000D+00  0.00000000D+00  0.00000000D+00  0.00000000D+00  0.00000000D+00
  0.00000000D+00  0.00000000D+00  0.00000000D+00  0.00000000D+00 -0.52409004D-05
 -0.12970944D-04  0.12872607D-04  0.00000000D+00  0.00000000D+00  0.00000000D+00
  0.00000000D+00  0.00000000D+00  0.00000000D+00  0.00000000D+00  0.00000000D+00
  0.00000000D+00 -0.38093811D-05  0.00000000D+00  0.00000000D+00  0.00000000D+00
  0.11021332D+00  0.44927820D-01  0.10107197D-01  0.11021332D+00  0.44927820D-01
  0.10107197D-01  0.11021332D+00  0.44927820D-01  0.10107197D-01  0.00000000D+00
  0.00000000D+00  0.00000000D+00  0.00000000D+00  0.00000000D+00  0.00000000D+00
  0.00000000D+00  0.00000000D+00  0.00000000D+00  0.71682246D-04  0.71682246D-04
  0.71682246D-04  0.00000000D+00  0.00000000D+00  0.00000000D+00  0.00000000D+00
  0.00000000D+00  0.00000000D+00  0.00000000D+00  0.00000000D+00  0.00000000D+00
  0.00000000D+00  0.00000000D+00  0.00000000D+00  0.00000000D+00
MO   14     MO 0.0        OCC NO =    1.0000000  ORB. ENERGY =  -19.882962
  0.11285410D+01  0.20849247D+01  0.33870687D+01  0.45270450D+01  0.39632422D+01
  0.12711258D+01  0.28806574D+00  0.13044893D+01  0.21408633D+01 -0.32034568D+00
 -0.25509318D+01 -0.94325040D+00  0.00000000D+00  0.00000000D+00  0.00000000D+00
  0.00000000D+00  0.00000000D+00  0.00000000D+00  0.00000000D+00  0.00000000D+00
  0.00000000D+00  0.00000000D+00  0.00000000D+00  0.00000000D+00  0.00000000D+00
  0.00000000D+00  0.00000000D+00  0.00000000D+00  0.00000000D+00  0.00000000D+00
 -0.17163814D-02  0.17925821D-01  0.33345062D-01 -0.20455651D-01 -0.26503183D-01
 -0.32989697D-02  0.00000000D+00  0.00000000D+00  0.00000000D+00  0.00000000D+00
  0.00000000D+00  0.00000000D+00  0.00000000D+00  0.00000000D+00  0.00000000D+00
  0.00000000D+00  0.00000000D+00  0.00000000D+00  0.00000000D+00  0.00000000D+00
  0.00000000D+00  0.00000000D+00  0.00000000D+00  0.00000000D+00  0.14267666D-03
  0.35311699D-03 -0.35043988D-03  0.00000000D+00  0.00000000D+00  0.00000000D+00
  0.00000000D+00  0.00000000D+00  0.00000000D+00  0.00000000D+00  0.00000000D+00
  0.00000000D+00  0.42640833D-04  0.00000000D+00  0.00000000D+00  0.00000000D+00
  0.24543795D+00  0.10005135D+00  0.22508076D-01  0.24543795D+00  0.10005135D+00
  0.22508076D-01  0.24543795D+00  0.10005135D+00  0.22508076D-01  0.00000000D+00
  0.00000000D+00  0.00000000D+00  0.00000000D+00  0.00000000D+00  0.00000000D+00
  0.00000000D+00  0.00000000D+00  0.00000000D+00  0.52191941D-03  0.52191941D-03
  0.52191941D-03  0.00000000D+00  0.00000000D+00  0.00000000D+00  0.00000000D+00
  0.00000000D+00  0.00000000D+00  0.00000000D+00  0.00000000D+00  0.00000000D+00
  0.00000000D+00  0.00000000D+00  0.00000000D+00  0.00000000D+00
MO   15     MO 0.0        OCC NO =    1.0000000  ORB. ENERGY =  -16.598610
  0.00000000D+00  0.00000000D+00  0.00000000D+00  0.00000000D+00  0.00000000D+00
  0.00000000D+00  0.00000000D+00  0.00000000D+00  0.00000000D+00  0.00000000D+00
  0.00000000D+00  0.00000000D+00  0.00000000D+00  0.00000000D+00  0.00000000D+00
  0.00000000D+00  0.00000000D+00  0.00000000D+00  0.00000000D+00  0.00000000D+00
  0.00000000D+00  0.00000000D+00  0.00000000D+00  0.00000000D+00  0.27131986D+02
  0.34916457D+02  0.36630568D+02  0.27062598D+02  0.11632161D+02  0.17649377D+01
  0.00000000D+00  0.00000000D+00  0.00000000D+00  0.00000000D+00  0.00000000D+00
  0.00000000D+00  0.00000000D+00  0.00000000D+00  0.00000000D+00  0.00000000D+00
  0.00000000D+00  0.00000000D+00  0.00000000D+00  0.00000000D+00  0.00000000D+00
  0.00000000D+00  0.00000000D+00  0.00000000D+00 -0.85667673D-02 -0.89248364D-02
  0.60460232D-02  0.14845139D-01  0.65948638D-02  0.73154221D-03  0.00000000D+00
  0.00000000D+00  0.00000000D+00  0.00000000D+00  0.00000000D+00  0.00000000D+00
  0.00000000D+00  0.00000000D+00  0.00000000D+00  0.12925002D-02 -0.14921559D-03
 -0.21303743D-03  0.00000000D+00  0.00000000D+00  0.00000000D+00  0.34209116D-04
  0.00000000D+00  0.00000000D+00  0.00000000D+00  0.00000000D+00  0.00000000D+00
  0.00000000D+00  0.00000000D+00  0.00000000D+00  0.00000000D+00  0.00000000D+00
  0.00000000D+00  0.00000000D+00  0.00000000D+00  0.00000000D+00  0.00000000D+00
  0.00000000D+00  0.00000000D+00  0.00000000D+00  0.00000000D+00  0.00000000D+00
  0.00000000D+00  0.00000000D+00  0.00000000D+00  0.00000000D+00  0.00000000D+00
  0.00000000D+00 -0.43442293D-04  0.00000000D+00  0.00000000D+00  0.65163440D-04
  0.00000000D+00  0.00000000D+00  0.65163440D-04  0.00000000D+00
MO   16     MO 0.0        OCC NO =    1.0000000  ORB. ENERGY =  -16.598610
  0.00000000D+00  0.00000000D+00  0.00000000D+00  0.00000000D+00  0.00000000D+00
  0.00000000D+00  0.00000000D+00  0.00000000D+00  0.00000000D+00  0.00000000D+00
  0.00000000D+00  0.00000000D+00  0.00000000D+00  0.00000000D+00  0.00000000D+00
  0.00000000D+00  0.00000000D+00  0.00000000D+00  0.27131986D+02  0.34916457D+02
  0.36630568D+02  0.27062598D+02  0.11632161D+02  0.17649377D+01  0.00000000D+00