 CH3
GAUSSIAN              9 MOL ORBITALS     49 PRIMITIVES        4 NUCLEI
  C    1    (CENTRE  1)   0.09740215  1.32997036  0.00000000  CHARGE =  6.0
  H    2    (CENTRE  2)   1.12128979  2.01173819  1.66375268  CHARGE =  1.0
  H    3    (CENTRE  3)   1.12128979  2.01173819 -1.66375268  CHARGE =  1.0
  H    4    (CENTRE  4)  -1.77992360  2.23799888  0.00000000  CHARGE =  1.0
CENTRE ASSIGNMENTS    1  1  1  1  1  1  1  1  1  1  1  1  1  1  1  1  1  1  1  1
CENTRE ASSIGNMENTS    1  1  1  1  1  1  1  1  2  2  2  2  2  2  2  3  3  3  3  3
CENTRE ASSIGNMENTS    3  3  4  4  4  4  4  4  4
TYPE ASSIGNMENTS      1  1  1  1  1  1  1  1  1  2  2  2  3  3  3  4  4  4  1  2
TYPE ASSIGNMENTS      3  4  5  6  7  8  9 10  1  1  1  1  2  3  4  1  1  1  1  2
TYPE ASSIGNMENTS      3  4  1  1  1  1  2  3  4
EXPONENTS  0.3047525D+04 0.4573695D+03 0.1039487D+03 0.2921016D+02 0.9286663D+01
EXPONENTS  0.3163927D+01 0.7868272D+01 0.1881289D+01 0.5442493D+00 0.7868272D+01
EXPONENTS  0.1881289D+01 0.5442493D+00 0.7868272D+01 0.1881289D+01 0.5442493D+00
EXPONENTS  0.7868272D+01 0.1881289D+01 0.5442493D+00 0.1687145D+00 0.1687145D+00
EXPONENTS  0.1687145D+00 0.1687145D+00 0.8000000D+00 0.8000000D+00 0.8000000D+00
EXPONENTS  0.8000000D+00 0.8000000D+00 0.8000000D+00 0.1873114D+02 0.2825394D+01
EXPONENTS  0.6401217D+00 0.1612778D+00 0.1100000D+01 0.1100000D+01 0.1100000D+01
EXPONENTS  0.1873114D+02 0.2825394D+01 0.6401217D+00 0.1612778D+00 0.1100000D+01
EXPONENTS  0.1100000D+01 0.1100000D+01 0.1873114D+02 0.2825394D+01 0.6401217D+00
EXPONENTS  0.1612778D+00 0.1100000D+01 0.1100000D+01 0.1100000D+01
MO    1     MO 0.0        OCC NO =    1.0000000  ORB. ENERGY =  -10.204426
  0.53238522D+00  0.98214678D+00  0.15854894D+01  0.20638362D+01  0.17610751D+01
  0.60805692D+00 -0.19981605D-01 -0.92095037D-02  0.25824410D-01  0.47094307D-04
  0.36108928D-04  0.18020886D-04  0.41406156D-03  0.31747614D-03  0.15844284D-03
  0.69124992D-15  0.53000659D-15  0.26451044D-15 -0.22279805D-02 -0.24409112D-04
 -0.24994438D-03  0.63082262D-16 -0.10935960D-01 -0.10561614D-01 -0.10935159D-01
  0.63803860D-04  0.13416124D-14  0.75477534D-15 -0.50712763D-04 -0.86018445D-04
 -0.97928960D-04  0.45553597D-03  0.85763353D-04  0.17619381D-03  0.12506536D-03
 -0.50712763D-04 -0.86018445D-04 -0.97928960D-04  0.45553597D-03  0.85763353D-04
  0.17619381D-03 -0.12506536D-03 -0.49351431D-04 -0.83709368D-04 -0.95300156D-04
  0.44586338D-03 -0.14016782D-03  0.20104565D-03  0.15430277D-16
MO    2     MO 0.0        OCC NO =    1.0000000  ORB. ENERGY =   -0.688341
 -0.10815619D+00 -0.19952705D+00 -0.32209852D+00 -0.41927657D+00 -0.35776946D+00
 -0.12352920D+00 -0.16079262D+00 -0.74109174D-01  0.20780986D+00  0.99060634D-02
  0.75953411D-02  0.37906075D-02  0.84795501D-01  0.65015812D-01  0.32447447D-01
 -0.60370980D-15 -0.46288639D-15 -0.23101275D-15  0.71351622D-01  0.37136507D-03
  0.37234786D-02 -0.12697552D-15 -0.12049329D-01 -0.57203364D-02 -0.12105733D-01
  0.12333913D-02 -0.24154202D-15 -0.19677879D-15  0.32447224D-01  0.55036633D-01
  0.62657261D-01  0.85533886D-02 -0.10882703D-01 -0.44246185D-02 -0.18282685D-01
  0.32447224D-01  0.55036633D-01  0.62657261D-01  0.85533886D-02 -0.10882703D-01
 -0.44246185D-02  0.18282685D-01  0.31776140D-01  0.53898347D-01  0.61361363D-01
  0.84361915D-02  0.20428882D-01 -0.67449440D-02 -0.11866090D-15
MO    3     MO 0.0        OCC NO =    1.0000000  ORB. ENERGY =   -0.398790
  0.18817332D-14  0.34714303D-14  0.56039648D-14  0.72946971D-14  0.62245782D-14
  0.21491973D-14  0.22393416D-14  0.10321105D-14 -0.28941456D-14  0.21196540D-11
  0.16252163D-11  0.81109683D-12 -0.15384911D-12 -0.11796174D-12 -0.58871174D-13
  0.59294105D+00  0.45462959D+00  0.22689203D+00 -0.20958664D-14  0.10536569D-12
 -0.73524611D-14  0.29274348D-01 -0.52886903D-13 -0.10155106D-13  0.60863113D-13
  0.11928840D-12  0.37223113D-01  0.28135961D-01  0.51719805D-01  0.87726579D-01
  0.99873609D-01  0.39188822D-01 -0.10934050D-01 -0.40264096D-02 -0.36541087D-02
 -0.51719805D-01 -0.87726579D-01 -0.99873609D-01 -0.39188822D-01  0.10934050D-01
  0.40264096D-02 -0.36541087D-02 -0.21497908D-12 -0.36464521D-12 -0.41513568D-12
 -0.16311799D-12 -0.34937460D-13  0.22988259D-13  0.14426064D-01
MO    4     MO 0.0        OCC NO =    1.0000000  ORB. ENERGY =   -0.398753
  0.54653233D-03  0.10082454D-02  0.16276207D-02  0.21186786D-02  0.18078723D-02
  0.62421485D-03  0.77513685D-03  0.35725987D-03 -0.10017940D-02  0.58964098D+00
  0.45209930D+00  0.22562924D+00 -0.43100258D-01 -0.33046544D-01 -0.16492542D-01
 -0.21317288D-11 -0.16344745D-11 -0.81571731D-12 -0.91189921D-03  0.29237469D-01
 -0.21617506D-02 -0.10516937D-12 -0.14422162D-01 -0.25147887D-02  0.17125413D-01
  0.33058994D-01 -0.13287258D-12 -0.10116115D-12  0.29762729D-01  0.50483222D-01
  0.57473364D-01  0.22504484D-01  0.81782305D-02 -0.33725880D-02 -0.10600772D-01
  0.29762729D-01  0.50483222D-01  0.57473364D-01  0.22504484D-01  0.81782305D-02
 -0.33725880D-02  0.10600772D-01 -0.59752558D-01 -0.10135165D+00 -0.11538527D+00
 -0.45374901D-01 -0.96742624D-02  0.64159220D-02 -0.51963514D-13
MO    5     MO 0.0        OCC NO =    1.0000000  ORB. ENERGY =   -0.264560
  0.36024752D-01  0.66458633D-01  0.10728484D+00  0.13965299D+00  0.11916615D+00
  0.41145206D-01  0.59645415D-01  0.27490517D-01 -0.77086279D-01  0.55107208D-01
  0.42252712D-01  0.21087065D-01  0.73224351D+00  0.56143788D+00  0.28019685D+00
 -0.11393809D-15 -0.87360504D-16 -0.43599014D-16 -0.56893505D-01  0.50797414D-02
  0.67611593D-01  0.65089432D-15  0.10817888D-01  0.22174239D-02  0.10712989D-01
 -0.94086094D-03  0.30147067D-15  0.86100938D-15  0.14320931D-01  0.24291009D-01
  0.27654456D-01  0.12029021D-01 -0.85974818D-03  0.18788373D-01 -0.39646408D-02
  0.14320931D-01  0.24291009D-01  0.27654456D-01  0.12029021D-01 -0.85974818D-03
  0.18788373D-01  0.39646408D-02  0.14591156D-01  0.24749363D-01  0.28176275D-01
  0.12397275D-01  0.59861370D-02  0.18079230D-01  0.17001966D-16
MO    6     MO 0.0        OCC NO =    1.0000000  ORB. ENERGY =  -10.189404
  0.53263402D+00  0.98260576D+00  0.15862304D+01  0.20648006D+01  0.17618981D+01
  0.60834108D+00 -0.18804601D-01 -0.86670234D-02  0.24303238D-01  0.11527507D-03
  0.88385611D-04  0.44110615D-04  0.12770965D-02  0.97919657D-03  0.48868772D-03
  0.21300106D-17  0.16331571D-17  0.81505983D-18 -0.22270228D-02 -0.25935697D-04
 -0.27143662D-03 -0.25521985D-16 -0.93771700D-02 -0.10428242D-01 -0.93677315D-02
 -0.15406882D-03 -0.50887658D-16 -0.12284566D-15 -0.81795714D-04 -0.13874101D-03
 -0.15795174D-03  0.45690733D-03  0.16467012D-03  0.30373619D-03  0.24423200D-03
 -0.81795714D-04 -0.13874101D-03 -0.15795174D-03  0.45690733D-03  0.16467012D-03
  0.30373619D-03 -0.24423200D-03 -0.79600536D-04 -0.13501757D-03 -0.15371274D-03
  0.44708986D-03 -0.26936895D-03  0.34357569D-03  0.70991278D-16
MO    7     MO 0.0        OCC NO =    1.0000000  ORB. ENERGY =   -0.653697
 -0.10327212D+00 -0.19051689D+00 -0.30755334D+00 -0.40034307D+00 -0.34161346D+00
 -0.11795092D+00 -0.15124601D+00 -0.69709148D-01  0.19547173D+00  0.14243660D-01
  0.10921135D-01  0.54504120D-02  0.13774558D+00  0.10561457D+00  0.52709074D-01
  0.75782929D-15  0.58105544D-15  0.28998739D-15  0.62072404D-01  0.43611999D-03
  0.48279306D-02 -0.18977245D-15 -0.21594391D-02 -0.26076141D-01 -0.20373867D-02
 -0.32910975D-02 -0.62122634D-15 -0.34814414D-15  0.34926683D-01  0.59242264D-01
  0.67445224D-01  0.12137586D-01 -0.11005413D-01 -0.59526410D-02 -0.18323077D-01
  0.34926683D-01  0.59242264D-01  0.67445224D-01  0.12137586D-01 -0.11005413D-01
 -0.59526410D-02  0.18323077D-01  0.34191087D-01  0.57994555D-01  0.66024751D-01
  0.11935771D-01  0.20381523D-01 -0.82733008D-02  0.28032878D-15
MO    8     MO 0.0        OCC NO =    1.0000000  ORB. ENERGY =   -0.386843
  0.49815412D-03  0.91899708D-03  0.14835462D-02  0.19311364D-02  0.16478422D-02
  0.56896031D-03  0.67105990D-03  0.30929090D-03 -0.86728396D-03  0.56648819D+00
  0.43434721D+00  0.21676970D+00 -0.43091422D-01 -0.33039769D-01 -0.16489160D-01
  0.23488628D-10  0.18009590D-10  0.89880476D-11 -0.79798807D-03  0.26627115D-01
 -0.20689483D-02  0.10992045D-11 -0.13424234D-01 -0.35255428D-02  0.17127584D-01
  0.48580512D-01  0.15910230D-11  0.18063729D-11  0.30597054D-01  0.51898394D-01
  0.59084488D-01  0.24710077D-01  0.90288230D-02 -0.55868630D-02 -0.99916708D-02
  0.30597054D-01  0.51898394D-01  0.59084488D-01  0.24710077D-01  0.90288230D-02
 -0.55868630D-02  0.99916708D-02 -0.61617292D-01 -0.10451459D+00 -0.11898617D+00
 -0.49962871D-01 -0.74144584D-02  0.10453686D-01  0.62183165D-12
MO    9     MO 0.0        OCC NO =    1.0000000  ORB. ENERGY =   -0.386835
 -0.20433471D-13 -0.37695765D-13 -0.60852653D-13 -0.79212073D-13 -0.67591805D-13
 -0.23337826D-13 -0.28009890D-13 -0.12909733D-13  0.36200238D-13 -0.23347401D-10
 -0.17901307D-10 -0.89340066D-11  0.17752736D-11  0.13611672D-11  0.67931782D-12
  0.56992304D+00  0.43698084D+00  0.21808406D+00  0.33459576D-13 -0.10970764D-11
  0.85485211D-13  0.26668518D-01  0.55238150D-12  0.14433121D-12 -0.70655485D-12
 -0.20016188D-11  0.38591707D-01  0.43827516D-01  0.53279623D-01  0.90372326D-01
  0.10288570D+00  0.43125562D-01 -0.10620661D-01 -0.77300531D-02 -0.19647004D-02
 -0.53279623D-01 -0.90372326D-01 -0.10288570D+00 -0.43125562D-01  0.10620661D-01
  0.77300531D-02 -0.19647004D-02  0.25392660D-11  0.43070757D-11  0.49034535D-11
  0.20594587D-11  0.30558190D-12 -0.43095673D-12  0.15092252D-01
END DATA
 TOTAL ENERGY =    -39.828999600006 THE VIRIAL(-V/T)=   2.01042375
