 NH2
GAUSSIAN              9 MOL ORBITALS     42 PRIMITIVES        3 NUCLEI
  N    1    (CENTRE  1)   0.09740215 -1.43840473  0.00000000  CHARGE =  7.0
  H    2    (CENTRE  2)  -0.86444577 -2.08623308  1.53338048  CHARGE =  1.0
  H    3    (CENTRE  3)  -0.86444577 -2.08623308 -1.53338048  CHARGE =  1.0
CENTRE ASSIGNMENTS    1  1  1  1  1  1  1  1  1  1  1  1  1  1  1  1  1  1  1  1
CENTRE ASSIGNMENTS    1  1  1  1  1  1  1  1  2  2  2  2  2  2  2  3  3  3  3  3
CENTRE ASSIGNMENTS    3  3
TYPE ASSIGNMENTS      1  1  1  1  1  1  1  1  1  2  2  2  3  3  3  4  4  4  1  2
TYPE ASSIGNMENTS      3  4  5  6  7  8  9 10  1  1  1  1  2  3  4  1  1  1  1  2
TYPE ASSIGNMENTS      3  4
EXPONENTS  0.4173511D+04 0.6274579D+03 0.1429021D+03 0.4023433D+02 0.1282021D+02
EXPONENTS  0.4390437D+01 0.1162636D+02 0.2716280D+01 0.7722184D+00 0.1162636D+02
EXPONENTS  0.2716280D+01 0.7722184D+00 0.1162636D+02 0.2716280D+01 0.7722184D+00
EXPONENTS  0.1162636D+02 0.2716280D+01 0.7722184D+00 0.2120315D+00 0.2120315D+00
EXPONENTS  0.2120315D+00 0.2120315D+00 0.8000000D+00 0.8000000D+00 0.8000000D+00
EXPONENTS  0.8000000D+00 0.8000000D+00 0.8000000D+00 0.1873114D+02 0.2825394D+01
EXPONENTS  0.6401217D+00 0.1612778D+00 0.1100000D+01 0.1100000D+01 0.1100000D+01
EXPONENTS  0.1873114D+02 0.2825394D+01 0.6401217D+00 0.1612778D+00 0.1100000D+01
EXPONENTS  0.1100000D+01 0.1100000D+01
MO    1     MO 0.0        OCC NO =    1.0000000  ORB. ENERGY =  -14.356389
  0.67396074D+00  0.12411550D+01  0.20053684D+01  0.26245961D+01  0.22482018D+01
  0.77340746D+00 -0.18233357D-01 -0.90136755D-02  0.23777498D-01 -0.28833041D-02
 -0.22446983D-02 -0.10658621D-02 -0.19419151D-02 -0.15118119D-02 -0.71786179D-03
 -0.60441943D-15 -0.47055018D-15 -0.22343387D-15  0.87526870D-03  0.46460706D-04
  0.31289497D-04 -0.10361393D-15 -0.92566670D-02 -0.91982046D-02 -0.91536781D-02
 -0.14410683D-03  0.68186822D-15  0.32438366D-15  0.15473058D-04  0.26245235D-04
  0.29879273D-04 -0.90952155D-04 -0.26862300D-03 -0.18092380D-03  0.50994427D-03
  0.15473058D-04  0.26245235D-04  0.29879273D-04 -0.90952155D-04 -0.26862300D-03
 -0.18092380D-03 -0.50994427D-03
MO    2     MO 0.0        OCC NO =    1.0000000  ORB. ENERGY =   -0.853457
 -0.13906091D+00 -0.25609228D+00 -0.41377536D+00 -0.54154299D+00 -0.46388011D+00
 -0.15958013D+00 -0.22776068D+00 -0.11259368D+00  0.29701492D+00 -0.22921640D+00
 -0.17844863D+00 -0.84733720D-01 -0.15438133D+00 -0.12018833D+00 -0.57069670D-01
  0.40688523D-14  0.31676665D-14  0.15041201D-14  0.98003993D-01 -0.10206060D-01
 -0.68739146D-02 -0.11146890D-15 -0.80263282D-02 -0.47869369D-02 -0.12055041D-01
 -0.79854754D-02 -0.44577024D-15 -0.75044393D-15  0.35091786D-01  0.59522311D-01
  0.67764047D-01  0.30967455D-02  0.13803521D-01  0.92969732D-02 -0.28189034D-01
  0.35091786D-01  0.59522311D-01  0.67764047D-01  0.30967455D-02  0.13803521D-01
  0.92969732D-02  0.28189034D-01
MO    3     MO 0.0        OCC NO =    1.0000000  ORB. ENERGY =   -0.476463
  0.22729245D-15  0.41857804D-15  0.67630807D-15  0.88514188D-15  0.75820335D-15
  0.26083074D-15  0.79963373D-15  0.39529961D-15 -0.10427750D-14  0.58383105D-14
  0.45452180D-14  0.21582303D-14  0.39503873D-14  0.30754396D-14  0.14603275D-14
  0.10257708D+01  0.79857896D+00  0.37919354D+00 -0.46104652D-16  0.58735990D-16
  0.22546120D-15  0.45186792D-01 -0.38608622D-15 -0.68755870D-15 -0.25149512D-15
  0.74883826D-15 -0.61963768D-01 -0.41733556D-01  0.52713466D-01  0.89412015D-01
  0.10179242D+00  0.31701949D-01  0.13026410D-01  0.87735166D-02 -0.28738528D-02
 -0.52713466D-01 -0.89412015D-01 -0.10179242D+00 -0.31701949D-01 -0.13026410D-01
 -0.87735166D-02 -0.28738528D-02
MO    4     MO 0.0        OCC NO =    1.0000000  ORB. ENERGY =   -0.314389
 -0.63391767D-01 -0.11674123D+00 -0.18862203D+00 -0.24686569D+00 -0.21146259D+00
 -0.72745580D-01 -0.10016488D+00 -0.49516593D-01  0.13062160D+00  0.92082368D+00
  0.71687594D+00  0.34039806D+00  0.62047054D+00  0.48304622D+00  0.22936743D+00
 -0.81489054D-15 -0.63440530D-15 -0.30123808D-15  0.99071203D-01  0.61219399D-01
  0.41252688D-01  0.68927962D-15 -0.33037794D-01 -0.67614532D-02 -0.10973650D-01
 -0.64807320D-01  0.11289677D-16  0.24521765D-15 -0.27986617D-01 -0.47470600D-01
 -0.54043600D-01 -0.24117531D-01  0.16941597D-01  0.11416200D-01  0.93125938D-02
 -0.27986617D-01 -0.47470600D-01 -0.54043600D-01 -0.24117531D-01  0.16941597D-01
  0.11416200D-01 -0.93125938D-02
MO    5     MO 0.0        OCC NO =    1.0000000  ORB. ENERGY =   -0.308652
  0.10771170D-04  0.19836010D-04  0.32049588D-04  0.41946021D-04  0.35930526D-04
  0.12360517D-04  0.17077942D-04  0.84424950D-05 -0.22270761D-04 -0.75239658D+00
 -0.58575276D+00 -0.27813613D+00  0.11167722D+01  0.86942497D+00  0.41283373D+00
 -0.13336702D-14 -0.10382835D-14 -0.49301375D-15 -0.16753256D-04 -0.55305421D-01
  0.82091157D-01 -0.28713406D-15  0.27122329D-01 -0.27115312D-01  0.17202872D-05
 -0.21986817D-01  0.44781202D-15  0.12180818D-14  0.46398951D-05  0.78701403D-05
  0.89598765D-05  0.40843836D-05 -0.15550094D-01  0.23081436D-01 -0.15480413D-05
  0.46398951D-05  0.78701403D-05  0.89598765D-05  0.40843836D-05 -0.15550094D-01
  0.23081436D-01  0.15480413D-05
MO    6     MO 0.0        OCC NO =    1.0000000  ORB. ENERGY =  -14.337405
  0.67430113D+00  0.12417819D+01  0.20063812D+01  0.26259217D+01  0.22493373D+01
  0.77379808D+00 -0.17181990D-01 -0.84939314D-02  0.22406447D-01 -0.29154207D-02
 -0.22697016D-02 -0.10777346D-02 -0.19636203D-02 -0.15287097D-02 -0.72588546D-03
  0.99910241D-15  0.77781718D-15  0.36933511D-15  0.68033822D-03  0.41187429D-04
  0.27740984D-04  0.83999178D-16 -0.83018589D-02 -0.86669143D-02 -0.77673024D-02
  0.89989072D-03 -0.16136310D-14 -0.10012201D-14 -0.33510245D-04 -0.56839718D-04
 -0.64710010D-04 -0.63009516D-04 -0.35400640D-03 -0.23843999D-03  0.64479777D-03
 -0.33510245D-04 -0.56839718D-04 -0.64710010D-04 -0.63009516D-04 -0.35400640D-03
 -0.23843999D-03 -0.64479777D-03
MO    7     MO 0.0        OCC NO =    1.0000000  ORB. ENERGY =   -0.799943
 -0.13379397D+00 -0.24639277D+00 -0.39810360D+00 -0.52103203D+00 -0.44631063D+00
 -0.15353603D+00 -0.21395369D+00 -0.10576819D+00  0.27900970D+00 -0.23878664D+00
 -0.18589922D+00 -0.88271524D-01 -0.16082775D+00 -0.12520697D+00 -0.59452697D-01
  0.89044071D-15  0.69322231D-15  0.32916647D-15  0.91789346D-01 -0.96043107D-02
 -0.64686809D-02 -0.36271874D-15 -0.63537214D-02 -0.18440151D-01  0.23809344D-02
  0.29795853D-01 -0.91890459D-15 -0.20879904D-15  0.38677391D-01  0.65604175D-01
  0.74688035D-01  0.66039107D-02  0.12596020D-01  0.84837054D-02 -0.28294351D-01
  0.38677391D-01  0.65604175D-01  0.74688035D-01  0.66039107D-02  0.12596020D-01
  0.84837054D-02  0.28294351D-01
MO    8     MO 0.0        OCC NO =    1.0000000  ORB. ENERGY =   -0.462277
 -0.21757471D-15 -0.40068200D-15 -0.64739296D-15 -0.84729821D-15 -0.72578686D-15
 -0.24967909D-15  0.45134843D-15  0.22312448D-15 -0.58858807D-15  0.36756722D-14
  0.28615695D-14  0.13587744D-14  0.28270222D-14  0.22008819D-14  0.10450566D-14
  0.98627377D+00  0.76782988D+00  0.36459279D+00  0.16493080D-14 -0.47046138D-15
  0.62982053D-16  0.42159678D-01 -0.68294401D-15 -0.92281544D-15 -0.40095077D-15
  0.72572470D-15 -0.56450541D-01 -0.38020847D-01  0.55188434D-01  0.93610030D-01
  0.10657171D+00  0.35237942D-01  0.14610276D-01  0.98404567D-02 -0.40665731D-02
 -0.55188434D-01 -0.93610030D-01 -0.10657171D+00 -0.35237942D-01 -0.14610276D-01
 -0.98404567D-02 -0.40665731D-02
MO    9     MO 0.0        OCC NO =    1.0000000  ORB. ENERGY =   -0.289450
 -0.67267367D-01 -0.12387848D+00 -0.20015387D+00 -0.26195839D+00 -0.22439084D+00
 -0.77193047D-01 -0.10223889D+00 -0.50541879D-01  0.13332624D+00  0.89459127D+00
  0.69645359D+00  0.33070080D+00  0.60250828D+00  0.46906232D+00  0.22272738D+00
 -0.85583036D-15 -0.66627760D-15 -0.31637217D-15  0.10538364D+00  0.62394579D-01
  0.42023060D-01  0.54072497D-15 -0.31846844D-01 -0.15630052D-01 -0.37247369D-02
 -0.39979078D-01  0.45451664D-15  0.41885780D-15 -0.27203343D-01 -0.46142019D-01
 -0.52531058D-01 -0.24532254D-01  0.17622010D-01  0.11868449D-01  0.10648963D-01
 -0.27203343D-01 -0.46142019D-01 -0.52531058D-01 -0.24532254D-01  0.17622010D-01
  0.11868449D-01 -0.10648963D-01
END DATA
 TOTAL ENERGY =    -55.878334193883 THE VIRIAL(-V/T)=   2.00782811
