BH3 for CDA                                                             
SP        RHF                                                         6-31G(d)            
Number of atoms                            I                4
Info1-9                                    I   N=           9
          12          11           0           0           0         110
           1           1           2
Charge                                     I                0
Multiplicity                               I                1
Number of electrons                        I                8
Number of alpha electrons                  I                4
Number of beta electrons                   I                4
Number of basis functions                  I               21
Number of independent functions            I               21
Number of point charges in /Mol/           I                0
Number of translation vectors              I                0
Atomic numbers                             I   N=           4
           5           1           1           1
Nuclear charges                            R   N=           4
  5.00000000E+00  1.00000000E+00  1.00000000E+00  1.00000000E+00
Current cartesian coordinates              R   N=          12
  0.00000000E+00  0.00000000E+00  2.88655667E+00  2.21526925E+00  0.00000000E+00
  3.39597014E+00 -1.10764408E+00 -1.91848776E+00  3.39597014E+00 -1.10764408E+00
  1.91848776E+00  3.39597014E+00
Force Field                                I                0
Int Atom Types                             I   N=           4
           0           0           0           0
MM charges                                 R   N=           4
  0.00000000E+00  0.00000000E+00  0.00000000E+00  0.00000000E+00
Integer atomic weights                     I   N=           4
          11           1           1           1
Real atomic weights                        R   N=           4
  1.10093053E+01  1.00782504E+00  1.00782504E+00  1.00782504E+00
Atom fragment info                         I   N=           4
           0           0           0           0
Atom residue num                           I   N=           4
           0           0           0           0
Nuclear spins                              I   N=           4
           3           1           1           1
Nuclear ZEff                               R   N=           4
 -2.75000000E+00 -1.00000000E+00 -1.00000000E+00 -1.00000000E+00
Nuclear ZNuc                               R   N=           4
  5.00000000E+00  1.00000000E+00  1.00000000E+00  1.00000000E+00
Nuclear QMom                               R   N=           4
  4.05900000E+00  0.00000000E+00  0.00000000E+00  0.00000000E+00
Nuclear GFac                               R   N=           4
  2.68863700E+00  2.79284600E+00  2.79284600E+00  2.79284600E+00
MicOpt                                     I   N=           4
          -1          -1          -1          -1
Number of contracted shells                I               10
Number of primitive shells                 I               23
Pure/Cartesian d shells                    I                1
Pure/Cartesian f shells                    I                0
Highest angular momentum                   I                2
Largest degree of contraction              I                6
Shell types                                I   N=          10
           0          -1          -1           2           0           0
           0           0           0           0
Number of primitives per shell             I   N=          10
           6           3           1           1           3           1
           3           1           3           1
Shell to atom map                          I   N=          10
           1           1           1           1           2           2
           3           3           4           4
Primitive exponents                        R   N=          23
  2.06888225E+03  3.10649570E+02  7.06830330E+01  1.98610803E+01  6.29930484E+00
  2.12702697E+00  4.72797107E+00  1.19033774E+00  3.59411683E-01  1.26751247E-01
  6.00000000E-01  1.87311370E+01  2.82539436E+00  6.40121692E-01  1.61277759E-01
  1.87311370E+01  2.82539436E+00  6.40121692E-01  1.61277759E-01  1.87311370E+01
  2.82539436E+00  6.40121692E-01  1.61277759E-01
Contraction coefficients                   R   N=          23
  1.86627459E-03  1.42514817E-02  6.95516185E-02  2.32572933E-01  4.67078712E-01
  3.63431440E-01 -1.30393797E-01 -1.30788951E-01  1.13094448E+00  1.00000000E+00
  1.00000000E+00  3.34946043E-02  2.34726953E-01  8.13757326E-01  1.00000000E+00
  3.34946043E-02  2.34726953E-01  8.13757326E-01  1.00000000E+00  3.34946043E-02
  2.34726953E-01  8.13757326E-01  1.00000000E+00
P(S=P) Contraction coefficients            R   N=          23
  0.00000000E+00  0.00000000E+00  0.00000000E+00  0.00000000E+00  0.00000000E+00
  0.00000000E+00  7.45975799E-02  3.07846677E-01  7.43456834E-01  1.00000000E+00
  0.00000000E+00  0.00000000E+00  0.00000000E+00  0.00000000E+00  0.00000000E+00
  0.00000000E+00  0.00000000E+00  0.00000000E+00  0.00000000E+00  0.00000000E+00
  0.00000000E+00  0.00000000E+00  0.00000000E+00
Coordinates of each shell                  R   N=          30
  0.00000000E+00  0.00000000E+00  2.88655667E+00  0.00000000E+00  0.00000000E+00
  2.88655667E+00  0.00000000E+00  0.00000000E+00  2.88655667E+00  0.00000000E+00
  0.00000000E+00  2.88655667E+00  2.21526925E+00  0.00000000E+00  3.39597014E+00
  2.21526925E+00  0.00000000E+00  3.39597014E+00 -1.10764408E+00 -1.91848776E+00
  3.39597014E+00 -1.10764408E+00 -1.91848776E+00  3.39597014E+00 -1.10764408E+00
  1.91848776E+00  3.39597014E+00 -1.10764408E+00  1.91848776E+00  3.39597014E+00
Constraint Structure                       R   N=          12
  0.00000000E+00  0.00000000E+00  2.88655667E+00  2.21526925E+00  0.00000000E+00
  3.39597014E+00 -1.10764408E+00 -1.91848776E+00  3.39597014E+00 -1.10764408E+00
  1.91848776E+00  3.39597014E+00
Num ILSW                                   I              100
ILSW                                       I   N=         100
           0           1           0           0           2           0
           0           0           0           0           0          -1
           0           0           0           0           0           0
           0           0           1           0           0           0
           1           1           0           0           0           0
           0           0      100000           0          -1           0
           0           0           0           0           0           0
           0           0           0           1           0           0
           0           0           1           0           0           0
           0           0           4          41           0           0
           0           0           0           0           0           0
           0           0           0           0           0           0
           0           0           0           0           0           0
           0           0           0           0           0           0
           0           0           0           0           0           0
           0           0           0           0           0           0
           0           0           0           0
Num RLSW                                   I               41
RLSW                                       R   N=          41
  1.00000000E+00  1.00000000E+00  1.00000000E+00  1.00000000E+00  1.00000000E+00
  0.00000000E+00  0.00000000E+00  1.00000000E+00  0.00000000E+00  0.00000000E+00
  0.00000000E+00  0.00000000E+00  1.00000000E+00  0.00000000E+00  0.00000000E+00
  0.00000000E+00  0.00000000E+00  1.00000000E+00  0.00000000E+00  0.00000000E+00
  0.00000000E+00  0.00000000E+00  1.00000000E+00  0.00000000E+00  0.00000000E+00
  0.00000000E+00  0.00000000E+00  1.00000000E+00  0.00000000E+00  0.00000000E+00
  0.00000000E+00  0.00000000E+00  1.00000000E+00  0.00000000E+00  0.00000000E+00
  0.00000000E+00  0.00000000E+00  0.00000000E+00  1.00000000E+00  1.00000000E+00
  0.00000000E+00
MxBond                                     I                3
NBond                                      I   N=           4
           3           1           1           1
IBond                                      I   N=          12
           2           3           4           1           0           0
           1           0           0           1           0           0
RBond                                      R   N=          12
  1.00000000E+00  1.00000000E+00  1.00000000E+00  1.00000000E+00  0.00000000E+00
  0.00000000E+00  1.00000000E+00  0.00000000E+00  0.00000000E+00  1.00000000E+00
  0.00000000E+00  0.00000000E+00
Virial Ratio                               R      2.000445855141968E+00
SCF Energy                                 R     -2.637240510553219E+01
Total Energy                               R     -2.637240510553219E+01
RMS Density                                R      8.545237825623590E-09
External E-field                           R   N=          35
  0.00000000E+00  0.00000000E+00  0.00000000E+00  0.00000000E+00  0.00000000E+00
  0.00000000E+00  0.00000000E+00  0.00000000E+00  0.00000000E+00  0.00000000E+00
  0.00000000E+00  0.00000000E+00  0.00000000E+00  0.00000000E+00  0.00000000E+00
  0.00000000E+00  0.00000000E+00  0.00000000E+00  0.00000000E+00  0.00000000E+00
  0.00000000E+00  0.00000000E+00  0.00000000E+00  0.00000000E+00  0.00000000E+00
  0.00000000E+00  0.00000000E+00  0.00000000E+00  0.00000000E+00  0.00000000E+00
  0.00000000E+00  0.00000000E+00  0.00000000E+00  0.00000000E+00  0.00000000E+00
IOpCl                                      I                0
IROHF                                      I                0
Alpha Orbital Energies                     R   N=          21
 -7.61622397E+00 -7.01827383E-01 -4.86280127E-01 -4.86278504E-01  7.19268660E-02
  3.09354947E-01  3.09356128E-01  3.27648372E-01  5.69760775E-01  5.69762047E-01
  6.47741070E-01  6.67281209E-01  1.15167420E+00  1.15167745E+00  1.19112812E+00
  1.49247128E+00  1.49247166E+00  1.77288636E+00  2.08089872E+00  2.08090254E+00
  3.75915893E+00
Alpha MO coefficients                      R   N=         441
  9.96241962E-01  2.36235048E-02  2.27560644E-09  1.50942515E-17 -1.01306162E-03
 -1.15091566E-02  9.44031475E-09  5.44383374E-16 -1.82282419E-04  4.83669282E-05
  4.83489432E-05 -9.60660370E-04 -8.20298632E-16  4.43527889E-09  2.90676478E-16
 -1.15450759E-04  2.29391137E-03 -1.15456085E-04  2.29391783E-03 -1.15456085E-04
  2.29391783E-03 -1.88533612E-01  3.05486793E-01  1.81504538E-06 -9.90224294E-17
  4.93263988E-02  2.43922667E-01  1.16906104E-07 -2.69817828E-15 -5.56301127E-03
  3.27336111E-02  3.27330877E-02 -7.44301581E-03 -8.89926950E-17  9.86403224E-08
  1.73152064E-17  1.60843956E-01  1.25385346E-01  1.60841860E-01  1.25384068E-01
  1.60841860E-01  1.25384068E-01  3.55232298E-07 -5.25458195E-08  4.03587416E-01
 -5.55795017E-11  3.28028128E-07 -2.20771283E-06  1.44663196E-01 -1.99183188E-11
  2.55198348E-08  3.42409713E-02 -3.42413290E-02 -3.36646956E-08  5.44461878E-12
  1.27652219E-02 -1.75771096E-12  2.70849483E-01  2.99638280E-01 -1.35425616E-01
 -1.49820410E-01 -1.35425616E-01 -1.49820410E-01  7.28137177E-16  1.17970915E-15
  5.55768231E-11  4.03586201E-01  4.00849875E-17 -1.86123875E-14  1.99235129E-11
  1.44664386E-01 -2.88147167E-15  4.71714609E-12 -4.71415539E-12  1.63895754E-15
 -3.95382572E-02  1.75785694E-12  1.27651339E-02  3.72990173E-11  4.12702121E-11
 -2.34562777E-01 -2.59495979E-01  2.34562777E-01  2.59495979E-01  4.81257163E-02
 -2.31855967E-02  6.92944392E-08  2.99900664E-16  3.37079554E-01 -3.47735032E-01
 -3.19473710E-07 -5.82316247E-15  6.90272456E-01  1.68324310E-03  1.68323969E-03
 -7.96148386E-03  1.64769694E-16  1.25545847E-07 -3.23640145E-16  3.81708525E-02
  8.09133088E-02  3.81707937E-02  8.09136147E-02  3.81707937E-02  8.09136147E-02
 -8.52892408E-14  7.06415179E-14  6.84320076E-11  1.98505374E-01  3.02628765E-14
  1.55503703E-12  6.59829905E-10  1.91388906E+00  3.43916743E-13 -7.26004576E-12
  7.26668528E-12  5.90506368E-15  2.43230835E-02 -2.38654346E-12 -6.92221275E-03
 -3.08913025E-11 -6.54174163E-10  7.75797999E-02  1.64135968E+00 -7.75797999E-02
 -1.64135968E+00  4.73683420E-06 -5.70057213E-06  1.98502969E-01 -6.84284674E-11
 -2.00013014E-06 -6.25186713E-05  1.91390699E+00 -6.59827802E-10 -1.43753537E-05
 -2.10650075E-02  2.10635106E-02 -1.05038204E-06 -8.38594761E-12 -6.92232189E-03
  2.38652475E-12 -8.95802302E-02 -1.89526186E+00  4.47910723E-02  9.47682887E-01
  4.47910724E-02  9.47682888E-01 -1.58745145E-01  1.65588015E-01  3.87633453E-06
 -1.18954166E-13  6.03862246E-02  2.82010619E+00  5.83392111E-05 -9.98082219E-13
  6.33352117E-01  2.40279300E-02  2.40293534E-02  3.35719758E-02 -1.61090562E-14
 -1.76883921E-07  5.29116779E-15 -2.02952277E-02 -1.41494095E+00 -2.02913623E-02
 -1.41484820E+00 -2.02913623E-02 -1.41484820E+00 -5.62635605E-07 -1.93019978E-05
 -1.01951412E+00  1.59509469E-10 -4.52412113E-06  3.29942434E-05  1.07773477E+00
 -1.68621677E-10  7.97018907E-06 -4.89896895E-02  4.89870880E-02 -1.28217087E-08
 -8.84998921E-12 -1.80581068E-02  2.82604409E-12 -2.49095656E-01  1.94425320E-01
  1.24542610E-01 -9.72176510E-02  1.24542610E-01 -9.72176511E-02  4.15054441E-16
 -1.91616210E-14 -1.59507738E-10 -1.01951654E+00 -1.14714909E-14  2.00998152E-14
  1.68631525E-10  1.07774035E+00  1.02939281E-14 -7.66697757E-12  7.66466842E-12
 -6.52107458E-16  5.65675428E-02 -2.82610349E-12 -1.80581951E-02 -3.89775610E-11
  3.04110668E-11  2.15719816E-01 -1.68374398E-01 -2.15719816E-01  1.68374398E-01
 -3.75615134E-02 -5.48654770E-01  1.11026728E-05  7.85472828E-15 -1.08641127E+00
  1.25422132E+00 -1.34312066E-05 -2.03744388E-14  1.09413086E+00 -6.48287074E-02
 -6.48298248E-02  3.05358879E-02 -2.66678045E-15  1.22260661E-07  1.81066283E-15
 -1.58636967E-01 -2.07776921E-01 -1.58640377E-01 -2.07777559E-01 -1.58640377E-01
 -2.07777559E-01 -4.29848531E-02 -1.50957173E+00  1.15098874E-05 -3.63103597E-15
  5.35920752E-01  3.07803549E+00 -1.36135049E-05 -2.02285129E-14 -9.11886112E-02
 -1.33366255E-01 -1.33367359E-01 -6.60019588E-03 -3.31548742E-15  4.70684940E-07
  6.68632039E-16 -1.96405609E-01 -5.79903134E-01 -1.96410230E-01 -5.79900336E-01
 -1.96410230E-01 -5.79900336E-01 -2.07468567E-16  1.66756473E-14 -5.13825354E-10
 -6.88464101E-01 -2.54132114E-15 -9.62815483E-15  9.64982496E-10  1.29296494E+00
 -1.81521631E-15  2.46214433E-10 -2.46223050E-10 -1.93774920E-14 -3.80946413E-01
  1.30926602E-10  1.75422954E-01  6.23200179E-10 -1.23782950E-09 -7.23134813E-01
  1.43634448E+00  7.23134813E-01 -1.43634448E+00  1.79616017E-06 -4.67145797E-05
  6.88467881E-01 -5.13818581E-10 -7.97065575E-06  1.05424055E-04 -1.29297321E+00
  9.64980372E-10  1.55493667E-05 -3.29904950E-01  3.29914643E-01 -1.09834943E-05
 -2.84318496E-10 -1.75425610E-01  1.30922221E-10 -8.34978583E-01  1.65850636E+00
  4.17526040E-01 -8.29323293E-01  4.17526041E-01 -8.29323295E-01  4.64815415E-02
 -1.28523481E+00 -2.66374936E-05  2.72437701E-14 -2.50491174E-01  3.11558156E+00
  4.95419611E-05 -6.09482437E-14  4.83991924E-01  1.19048171E-01  1.19019427E-01
 -3.26381176E-01  8.70643497E-15  6.96880897E-06 -4.81663229E-15  6.37441421E-01
 -1.32111589E+00  6.37396433E-01 -1.32101882E+00  6.37396433E-01 -1.32101882E+00
  5.60512149E-08 -2.95826642E-07  4.94911381E-03  1.37477038E-11 -4.31726994E-07
  2.31108323E-07 -1.71929246E-02 -4.77614258E-11  1.32921061E-07 -3.71311355E-01
  3.71311839E-01 -5.42149005E-07  1.19101680E-09  9.03376200E-01  2.50947420E-09
  1.38285829E-02  4.86937512E-03 -6.91352881E-03 -2.43510126E-03 -6.91352874E-03
 -2.43510124E-03  2.64219570E-16 -2.11527613E-15 -1.37430770E-11  4.94854755E-03
  2.61294218E-15 -2.79203976E-16  4.77511468E-11 -1.71923602E-02 -2.12275323E-15
  1.03145478E-09 -1.03145999E-09  6.34298104E-15  4.28750573E-01 -2.50947126E-09
  9.03377682E-01 -3.84151363E-11 -1.35189483E-11 -1.19762052E-02 -4.21639469E-03
  1.19762052E-02  4.21639470E-03  6.81308826E-02 -3.29726857E-02 -6.57785526E-07
 -2.36463558E-15 -6.31987697E-02 -5.81462378E-01  4.41235558E-06  1.08176098E-14
 -1.20969706E-01 -4.86451219E-01 -4.86464353E-01  1.06061586E+00 -1.01402895E-14
  4.15589705E-06 -1.16624133E-15  4.35113170E-01  3.47365946E-02  4.35121655E-01
  3.47349794E-02  4.35121655E-01  3.47349794E-02  1.17228821E-15 -1.41792617E-14
 -2.13948552E-10 -3.24454802E-01 -4.71670293E-15  1.49611850E-14 -1.37793553E-10
 -2.08951481E-01  2.74732805E-15 -5.63024986E-10  5.63015413E-10  1.11005775E-14
  9.85908531E-01 -3.07451822E-10 -4.66250195E-01  5.95153907E-10 -1.62995224E-10
 -7.81620436E-01  2.14066015E-01  7.81620435E-01 -2.14066015E-01  1.14402250E-06
 -8.72591688E-06 -3.24462570E-01  2.13950867E-10 -2.88094543E-06  1.24358460E-06
 -2.08950780E-01  1.37777137E-10 -2.60676975E-07 -8.53825921E-01  8.53817277E-01
  1.04442477E-05 -6.50116918E-10 -4.66254015E-01  3.07449634E-10  9.02551477E-01
 -2.47185231E-01 -4.51263045E-01  1.23588829E-01 -4.51263046E-01  1.23588830E-01
 -4.71849146E-01  4.19667275E+00 -1.30236138E-06  2.99755564E-15 -3.50489004E-02
  1.02888562E+00 -3.06569932E-07 -1.72258789E-14  1.08187864E-01 -2.12040579E+00
 -2.12040235E+00 -2.05950203E+00  1.94042027E-15 -8.82288858E-07 -6.49709253E-16
  1.90116306E-01 -3.47678325E-01  1.90112366E-01 -3.47676044E-01  1.90112366E-01
 -3.47676044E-01
Total SCF Density                          R   N=         231
  2.05608594E+00 -6.81196036E-02  1.87760501E-01 -3.93125445E-07  1.06663864E-06
  3.25765604E-01  6.15658132E-16  8.98282682E-16 -2.29714894E-15  3.25763643E-01
 -2.06178773E-02  3.00892626E-02  4.43830743E-07 -1.39072067E-17  4.86823983E-03
 -1.14907053E-01  1.48486533E-01 -8.96601187E-07 -1.48266535E-14  2.40869725E-02
  1.19261457E-01  7.75062941E-08  5.66696759E-08  1.16768491E-01  1.09306799E-15
  1.06421182E-07 -5.81934789E-07  4.18548805E-02  2.29858949E-15 -1.27937813E-15
  2.40830796E-15  1.16769100E-01 -2.68755622E-16 -6.62597583E-15  1.55019657E-15
  4.18555689E-02  1.73443443E-03 -3.40746524E-03  4.03902932E-10 -2.32758494E-15
 -5.48437298E-04 -2.70969326E-03  6.07942016E-09 -8.04887751E-16  6.19606425E-05
 -1.22463772E-02  2.00016534E-02  2.76385690E-02  1.35141698E-15  3.22918678E-03
  1.59676750E-02  9.90682432E-03  5.84329817E-16 -3.64210780E-04  4.48787150E-03
 -1.22462644E-02  2.00013399E-02 -2.76386202E-02  1.08940511E-15  3.22909026E-03
  1.59677224E-02 -9.90691253E-03 -5.79565865E-17 -3.64208446E-04 -2.01963721E-04
  4.48785197E-03  8.92416969E-04 -4.59287438E-03 -5.41964901E-08  1.32810848E-15
 -7.32327916E-04 -3.60892776E-03 -1.14984908E-08  5.14657891E-16  8.31613846E-05
 -4.87368804E-04 -4.87356367E-04  1.12642705E-04 -1.65458595E-15 -1.86988315E-16
 -6.22058425E-17 -3.19141901E-02 -6.71515709E-18  1.42322964E-15 -2.10048166E-16
 -1.14395554E-02  2.29423814E-16 -1.63305915E-16 -8.88953029E-17 -1.27068827E-16
  3.12654757E-03 -1.92875725E-08  5.91346670E-08  1.03037658E-02 -7.57350829E-17
  1.80968610E-08 -8.34475964E-09  3.69331559E-03  7.50699017E-17 -4.47558690E-10
  8.74193649E-04 -8.74189867E-04 -2.33635917E-09 -1.66603637E-18  3.25901779E-04
  5.89979959E-16  5.46157394E-17  1.11129192E-16  1.03036638E-02  9.89470382E-19
 -4.65661935E-16  1.00449888E-16  3.69332050E-03 -7.39530760E-17  5.97037217E-17
  2.02308748E-17  4.11451329E-17 -1.00942229E-03  3.41760769E-18  3.25897286E-04
 -6.08788252E-02  9.82659250E-02  2.18623469E-01 -6.53012778E-16  1.58681178E-02
  7.84684349E-02  7.83639412E-02  1.07807769E-15 -1.78949756E-03  2.90782945E-02
 -8.01866507E-03 -2.39412462E-03 -1.60361125E-16  6.91493921E-03  1.09196145E-16
  1.98460467E-01 -4.27079099E-02  7.67154832E-02  2.41860933E-01  4.65888222E-15
  1.23651640E-02  6.11145310E-02  8.66932917E-02  3.40406560E-15 -1.39586117E-03
  2.87286637E-02 -1.23113050E-02 -1.87091773E-03 -6.98190073E-16  7.64992301E-03
  2.90265682E-16  2.02648166E-01  2.11019691E-01 -6.08783345E-02  9.82646874E-02
 -1.09311565E-01 -1.89332600E-01  1.58676446E-02  7.84692068E-02 -3.91821671E-02
 -6.78657601E-02 -1.78949498E-03  1.25564943E-03  1.98039964E-02 -2.39406607E-03
  1.85484068E-02 -3.45744433E-03 -5.98845051E-03 -2.16190072E-02 -4.08235022E-02
  1.98459822E-01 -4.27077347E-02  7.67147502E-02 -1.20930809E-01 -2.09457993E-01
  1.23647431E-02  6.11158922E-02 -4.33469692E-02 -7.50796527E-02 -1.39586990E-03
 -2.05122413E-03  1.84687371E-02 -1.87086847E-03  2.05200375E-02 -3.82495679E-03
 -6.62500183E-03 -4.08235517E-02 -5.83306862E-02  2.02648721E-01  2.11021490E-01
 -6.08783345E-02  9.82646874E-02 -1.09311565E-01  1.89332600E-01  1.58676446E-02
  7.84692068E-02 -3.91821671E-02  6.78657601E-02 -1.78949498E-03  1.25564943E-03
  1.98039964E-02 -2.39406607E-03 -1.85484068E-02 -3.45744433E-03  5.98845051E-03
 -2.16190072E-02 -4.08235022E-02 -2.16189632E-02 -4.08236685E-02  1.98459822E-01
 -4.27077347E-02  7.67147502E-02 -1.20930809E-01  2.09457993E-01  1.23647431E-02
  6.11158922E-02 -4.33469692E-02  7.50796527E-02 -1.39586990E-03 -2.05122413E-03
  1.84687371E-02 -1.87086847E-03 -2.05200375E-02 -3.82495679E-03  6.62500183E-03
 -4.08235517E-02 -5.83306862E-02 -4.08236685E-02 -5.83311625E-02  2.02648721E-01
  2.11021490E-01
Mulliken Charges                           R   N=           4
  1.05100400E-01 -3.50325615E-02 -3.50339192E-02 -3.50339192E-02
ONIOM Charges                              I   N=          16
           0           0           0           0           0           0
           0           0           0           0           0           0
           0           0           0           0
ONIOM Multiplicities                       I   N=          16
           1           0           0           0           0           0
           0           0           0           0           0           0
           0           0           0           0
Atom Layers                                I   N=           4
           1           1           1           1
Atom Modifiers                             I   N=           4
           0           0           0           0
Force Field                                I                0
Int Atom Modified Types                    I   N=           4
           0           0           0           0
Link Atoms                                 I   N=           4
           0           0           0           0
Atom Modified MM Charges                   R   N=           4
  0.00000000E+00  0.00000000E+00  0.00000000E+00  0.00000000E+00
Link Distances                             R   N=          16
  0.00000000E+00  0.00000000E+00  0.00000000E+00  0.00000000E+00  0.00000000E+00
  0.00000000E+00  0.00000000E+00  0.00000000E+00  0.00000000E+00  0.00000000E+00
  0.00000000E+00  0.00000000E+00  0.00000000E+00  0.00000000E+00  0.00000000E+00
  0.00000000E+00
Cartesian Gradient                         R   N=          12
  0.00000000E+00  0.00000000E+00  0.00000000E+00  0.00000000E+00  0.00000000E+00
  0.00000000E+00  0.00000000E+00  0.00000000E+00  0.00000000E+00  0.00000000E+00
  0.00000000E+00  0.00000000E+00
Dipole Moment                              R   N=           3
  4.67419121E-06 -1.25296908E-14 -2.83832903E-01
Quadrupole Moment                          R   N=           6
 -7.79411364E-02 -7.79518132E-02  1.55892950E-01  2.26403098E-14  1.27951253E-05
 -4.53109772E-14
QEq coupling tensors                       R   N=          24
  2.97475261E-01 -6.21724894E-15  2.97471503E-01  9.41376913E-07  9.08995101E-16
 -5.94946764E-01 -1.95462988E-01  3.60822483E-16  1.17762845E-01 -5.14731295E-02
  5.83300769E-17  7.77001434E-02  3.94548565E-02 -1.35627087E-01 -1.17152653E-01
  2.57355488E-02  4.45750936E-02  7.76977969E-02  3.94548565E-02  1.35627087E-01
 -1.17152653E-01  2.57355488E-02 -4.45750936E-02  7.76977969E-02
