CO for CDA                                                              
SP        RHF                                                         6-31G(d)            
Number of atoms                            I                2
Info1-9                                    I   N=           9
          10           9           0           0           0         110
           1           1           2
Charge                                     I                0
Multiplicity                               I                1
Number of electrons                        I               14
Number of alpha electrons                  I                7
Number of beta electrons                   I                7
Number of basis functions                  I               30
Number of independent functions            I               30
Number of point charges in /Mol/           I                0
Number of translation vectors              I                0
Atomic numbers                             I   N=           2
           6           8
Nuclear charges                            R   N=           2
  6.00000000E+00  8.00000000E+00
Current cartesian coordinates              R   N=           6
  0.00000000E+00  0.00000000E+00 -1.88254517E-01  0.00000000E+00  0.00000000E+00
 -2.28244902E+00
Force Field                                I                0
Int Atom Types                             I   N=           2
           0           0
MM charges                                 R   N=           2
  0.00000000E+00  0.00000000E+00
Integer atomic weights                     I   N=           2
          12          16
Real atomic weights                        R   N=           2
  1.20000000E+01  1.59949146E+01
Atom fragment info                         I   N=           2
           0           0
Atom residue num                           I   N=           2
           0           0
Nuclear spins                              I   N=           2
           0           0
Nuclear ZEff                               R   N=           2
 -3.60000000E+00 -5.60000000E+00
Nuclear ZNuc                               R   N=           2
  6.00000000E+00  8.00000000E+00
Nuclear QMom                               R   N=           2
  0.00000000E+00  0.00000000E+00
Nuclear GFac                               R   N=           2
  0.00000000E+00  0.00000000E+00
MicOpt                                     I   N=           2
          -1          -1
Number of contracted shells                I                8
Number of primitive shells                 I               22
Pure/Cartesian d shells                    I                1
Pure/Cartesian f shells                    I                0
Highest angular momentum                   I                2
Largest degree of contraction              I                6
Shell types                                I   N=           8
           0          -1          -1           2           0          -1
          -1           2
Number of primitives per shell             I   N=           8
           6           3           1           1           6           3
           1           1
Shell to atom map                          I   N=           8
           1           1           1           1           2           2
           2           2
Primitive exponents                        R   N=          22
  3.04752488E+03  4.57369518E+02  1.03948685E+02  2.92101553E+01  9.28666296E+00
  3.16392696E+00  7.86827235E+00  1.88128854E+00  5.44249258E-01  1.68714478E-01
  8.00000000E-01  5.48467166E+03  8.25234946E+02  1.88046958E+02  5.29645000E+01
  1.68975704E+01  5.79963534E+00  1.55396162E+01  3.59993359E+00  1.01376175E+00
  2.70005823E-01  8.00000000E-01
Contraction coefficients                   R   N=          22
  1.83473713E-03  1.40373228E-02  6.88426223E-02  2.32184443E-01  4.67941348E-01
  3.62311985E-01 -1.19332420E-01 -1.60854152E-01  1.14345644E+00  1.00000000E+00
  1.00000000E+00  1.83107443E-03  1.39501722E-02  6.84450781E-02  2.32714336E-01
  4.70192898E-01  3.58520853E-01 -1.10777550E-01 -1.48026263E-01  1.13076702E+00
  1.00000000E+00  1.00000000E+00
P(S=P) Contraction coefficients            R   N=          22
  0.00000000E+00  0.00000000E+00  0.00000000E+00  0.00000000E+00  0.00000000E+00
  0.00000000E+00  6.89990666E-02  3.16423961E-01  7.44308291E-01  1.00000000E+00
  0.00000000E+00  0.00000000E+00  0.00000000E+00  0.00000000E+00  0.00000000E+00
  0.00000000E+00  0.00000000E+00  7.08742682E-02  3.39752839E-01  7.27158577E-01
  1.00000000E+00  0.00000000E+00
Coordinates of each shell                  R   N=          24
  0.00000000E+00  0.00000000E+00 -1.88254517E-01  0.00000000E+00  0.00000000E+00
 -1.88254517E-01  0.00000000E+00  0.00000000E+00 -1.88254517E-01  0.00000000E+00
  0.00000000E+00 -1.88254517E-01  0.00000000E+00  0.00000000E+00 -2.28244902E+00
  0.00000000E+00  0.00000000E+00 -2.28244902E+00  0.00000000E+00  0.00000000E+00
 -2.28244902E+00  0.00000000E+00  0.00000000E+00 -2.28244902E+00
Constraint Structure                       R   N=           6
  0.00000000E+00  0.00000000E+00 -1.88254517E-01  0.00000000E+00  0.00000000E+00
 -2.28244902E+00
Num ILSW                                   I              100
ILSW                                       I   N=         100
           0           1           0           0           2           0
           0           0           0           0           0          -1
           0           0           0           0           0           0
           0           0           1           0           0           0
           1           1           0           0           0           0
           0           0      100000           0          -1           0
           0           0           0           0           0           0
           0           0           0           1           0           0
           0           0           1           0           0           0
           0           0           4          41           0           0
           0           0           0           0           0           0
           0           0           0           0           0           0
           0           0           0           0           0           0
           0           0           0           0           0           0
           0           0           0           0           0           0
           0           0           0           0           0           0
           0           0           0           0
Num RLSW                                   I               41
RLSW                                       R   N=          41
  1.00000000E+00  1.00000000E+00  1.00000000E+00  1.00000000E+00  1.00000000E+00
  0.00000000E+00  0.00000000E+00  1.00000000E+00  0.00000000E+00  0.00000000E+00
  0.00000000E+00  0.00000000E+00  1.00000000E+00  0.00000000E+00  0.00000000E+00
  0.00000000E+00  0.00000000E+00  1.00000000E+00  0.00000000E+00  0.00000000E+00
  0.00000000E+00  0.00000000E+00  1.00000000E+00  0.00000000E+00  0.00000000E+00
  0.00000000E+00  0.00000000E+00  1.00000000E+00  0.00000000E+00  0.00000000E+00
  0.00000000E+00  0.00000000E+00  1.00000000E+00  0.00000000E+00  0.00000000E+00
  0.00000000E+00  0.00000000E+00  0.00000000E+00  1.00000000E+00  1.00000000E+00
  0.00000000E+00
MxBond                                     I                1
NBond                                      I   N=           2
           1           1
IBond                                      I   N=           2
           2           1
RBond                                      R   N=           2
  3.00000000E+00  3.00000000E+00
Virial Ratio                               R      2.002122943871570E+00
SCF Energy                                 R     -1.127377902182893E+02
Total Energy                               R     -1.127377902182893E+02
RMS Density                                R      6.671148280240408E-09
External E-field                           R   N=          35
  0.00000000E+00  0.00000000E+00  0.00000000E+00  0.00000000E+00  0.00000000E+00
  0.00000000E+00  0.00000000E+00  0.00000000E+00  0.00000000E+00  0.00000000E+00
  0.00000000E+00  0.00000000E+00  0.00000000E+00  0.00000000E+00  0.00000000E+00
  0.00000000E+00  0.00000000E+00  0.00000000E+00  0.00000000E+00  0.00000000E+00
  0.00000000E+00  0.00000000E+00  0.00000000E+00  0.00000000E+00  0.00000000E+00
  0.00000000E+00  0.00000000E+00  0.00000000E+00  0.00000000E+00  0.00000000E+00
  0.00000000E+00  0.00000000E+00  0.00000000E+00  0.00000000E+00  0.00000000E+00
IOpCl                                      I                0
IROHF                                      I                0
Alpha Orbital Energies                     R   N=          30
 -2.06748680E+01 -1.13529488E+01 -1.53326883E+00 -7.98205742E-01 -6.41765707E-01
 -6.41765707E-01 -5.45205141E-01  1.70382006E-01  1.70382006E-01  4.09699615E-01
  7.33406136E-01  7.33406136E-01  7.60031349E-01  9.97165347E-01  1.12921899E+00
  1.20659452E+00  1.20659452E+00  1.61738475E+00  1.74276588E+00  1.74276588E+00
  1.86230345E+00  1.86230345E+00  2.27365333E+00  2.27365333E+00  2.81889146E+00
  2.97548647E+00  2.97548647E+00  3.39015984E+00  4.11900875E+00  4.30889370E+00
Alpha MO coefficients                      R   N=         900
 -6.12546443E-06 -3.92915213E-05 -5.23017099E-17  1.96437534E-16  5.71858921E-04
 -1.02816198E-03 -1.50416489E-16  3.28247546E-16  6.30872956E-04  9.28322673E-05
  9.28322673E-05 -9.18504004E-04  8.65697445E-18  2.20396618E-16 -2.91194189E-16
  9.94654460E-01  2.11197696E-02  9.77929634E-18 -4.22112675E-17  1.76563754E-03
  5.37637533E-03  2.61705078E-16 -2.17927870E-16  5.02828069E-04 -4.25443128E-03
 -4.25443128E-03 -3.21640209E-03 -5.09284501E-18  2.52026231E-16 -3.06463243E-16
  9.95907922E-01  2.57385301E-02  2.15477724E-16 -4.65602168E-17 -4.40808143E-03
 -1.55870159E-03  2.97120429E-16 -1.91127086E-16 -8.30840752E-04 -2.73358285E-03
 -2.73358285E-03  2.84970208E-04 -3.49715092E-17 -2.62506894E-16  2.85975466E-16
 -8.02355173E-04  5.10560262E-04  1.32008924E-16  1.22503981E-17  1.85414332E-04
 -4.07128886E-03 -1.83520376E-16  2.04683630E-16 -3.37219813E-03  1.69572476E-04
  1.69572476E-04 -6.59838564E-04  2.91875849E-18 -1.67854173E-16  2.90140409E-16
 -1.17218551E-01  2.18705576E-01  1.74808596E-16  7.18810420E-17 -2.15696584E-01
  4.26341090E-02 -1.01059304E-16  9.05814095E-17  1.45969604E-02 -2.24152187E-02
 -2.24152187E-02  3.77955784E-02  1.97550737E-16 -1.84344899E-16 -4.38146756E-16
 -2.01316523E-01  4.45768292E-01 -2.06941819E-17 -2.16011369E-16  1.66815100E-01
  3.44851463E-01  2.23908692E-17 -1.53721171E-16  3.95184937E-02 -1.83805738E-03
 -1.83805738E-03  2.13598151E-02 -6.08322227E-17  5.10002200E-17 -4.47478487E-16
 -1.26913793E-01  2.81309714E-01 -6.68683545E-16  1.44218816E-16 -1.26478597E-01
  1.69000147E-01  2.11979247E-16 -8.65334033E-17  2.48762185E-02 -1.39103293E-02
 -1.39103293E-02  1.23822285E-02  2.81617951E-17 -5.97846609E-17 -3.57307838E-16
  1.07278221E-01 -2.57824391E-01 -5.90489244E-16 -3.37397888E-17  5.08695487E-01
 -4.02585640E-01 -4.83123079E-16  2.06370845E-17  2.49980674E-01 -9.90905468E-03
 -9.90905468E-03  2.51525012E-02 -5.74469248E-17  3.67467717E-17 -4.33186518E-17
 -1.49317645E-16  2.34915553E-16  2.77736733E-01 -7.44612615E-02  1.08990262E-16
 -1.16923591E-15  1.08964060E-01 -2.92132816E-02  8.57400903E-16  2.45079642E-17
 -2.69736444E-16 -4.22946120E-16  2.36322487E-17 -4.57439682E-02  1.22639650E-02
  8.11406083E-17 -3.73281578E-16  5.36760382E-01 -1.43905542E-01  7.59177924E-16
  1.17200249E-15  3.54884026E-01 -9.51444628E-02  1.01178135E-15 -1.40754875E-16
 -3.64007131E-17  2.77363983E-16  1.54061334E-16  4.00917940E-02 -1.07486162E-02
 -4.52038977E-17  2.25479163E-16  7.44612615E-02  2.77736733E-01 -2.93794069E-17
  1.30988860E-15  2.92132816E-02  1.08964060E-01 -7.45391078E-16  3.70154163E-17
 -7.60126013E-17 -1.24750102E-17 -1.50846675E-16 -1.22639650E-02 -4.57439682E-02
  7.99284466E-17  4.34004766E-16  1.43905542E-01  5.36760382E-01  9.76303258E-17
 -2.22915587E-15  9.51444628E-02  3.54884026E-01 -6.21633128E-16  3.01492581E-16
  3.59670715E-16  1.62475817E-16 -5.87959183E-17  1.07486162E-02  4.00917940E-02
 -1.43285328E-01  2.80632635E-01  5.36967411E-17 -1.05304894E-16  4.45733609E-01
  6.15733549E-01 -2.26900065E-16  6.59959354E-17  1.58836760E-01  9.63466521E-03
  9.63466521E-03 -3.72253986E-02  4.24815756E-17  7.72855343E-17  5.36699815E-17
  1.61961167E-02 -4.08938037E-02  2.78301384E-16 -1.24662399E-16 -2.46171607E-01
 -1.86061620E-02  2.81908196E-16 -1.73685550E-16 -1.41011186E-01  4.26253819E-03
  4.26253819E-03 -1.15756165E-02  1.18518147E-16 -6.32479540E-17  7.16729027E-17
 -3.07584251E-18 -2.61967332E-16  5.86304831E-02  4.31309686E-01  2.27526053E-17
  7.27954320E-16  1.04695956E-01  7.70186045E-01 -4.95905244E-16  1.69439102E-16
 -1.35029980E-16  6.54447718E-17  5.76851476E-17  1.48178959E-03  1.09006470E-02
  3.17773179E-17 -5.30921755E-18 -4.74212128E-02 -3.48849733E-01  1.13901464E-17
 -7.30114326E-16 -6.92355557E-02 -5.09324914E-01 -1.79283033E-16  1.61256764E-16
 -1.13572644E-16  5.55051745E-17  3.23071961E-18  8.18491391E-04  6.02115566E-03
 -1.70061448E-17  4.18559742E-17  4.31309686E-01 -5.86304831E-02 -4.45587697E-17
  7.12989806E-16  7.70186045E-01 -1.04695956E-01 -5.26758496E-16  1.31284372E-16
 -2.00740142E-16  5.36626413E-17 -3.35100529E-16  1.09006470E-02 -1.48178959E-03
  2.16005974E-17  3.19092505E-17 -3.48849733E-01  4.74212128E-02 -3.94484025E-17
 -7.64895692E-16 -5.09324914E-01  6.92355557E-02 -3.24126165E-16 -7.16513995E-15
  7.20093577E-15 -7.54962528E-17  4.19293457E-16  6.02115566E-03 -8.18491391E-04
  2.51894817E-02  8.34319702E-02  7.91971190E-16  1.13360323E-15  9.77130346E-02
 -2.25350258E+00  5.55866637E-17 -6.20854593E-16  2.04671663E+00  1.28467688E-02
  1.28467688E-02 -7.47422399E-03  6.30930776E-18  8.89808780E-17  8.15832095E-17
 -1.06713599E-01  6.89690234E-02 -1.42040082E-16 -3.97431551E-16  6.54880065E-02
  2.54404026E+00 -3.25251907E-16  2.87898837E-17  8.97589329E-01 -7.45683016E-02
 -7.45683016E-02  2.22173160E-02  6.73484594E-17 -9.65927001E-17  6.86145763E-17
 -1.96038639E-17  4.90229795E-15 -7.06351644E-01 -7.70791272E-01  1.55092899E-15
 -5.78576761E-15  7.20958251E-01  7.86730423E-01 -1.93475816E-16  1.96499289E-16
  7.99260222E-17  7.76021555E-16  1.05391297E-16  1.58145745E-02  1.72573195E-02
  9.79994937E-18  1.70326028E-15 -2.37307077E-02 -2.58956322E-02 -2.49757711E-17
 -1.79570415E-15 -3.20639508E-03 -3.49891073E-03 -3.21701493E-16  6.15828232E-16
  6.76190785E-16  5.46633979E-16  1.66132206E-16 -7.11901301E-02 -7.76847218E-02
 -5.69540544E-16  1.21404495E-14 -7.70791272E-01  7.06351644E-01  4.98290339E-15
 -1.44205545E-14  7.86730423E-01 -7.20958251E-01 -4.64468164E-15  9.11939114E-16
  4.38904453E-16  2.02726091E-16 -5.74123220E-16  1.72573195E-02 -1.58145745E-02
 -2.58035467E-17  4.18490906E-16 -2.58956322E-02  2.37307077E-02 -1.16257775E-15
  1.20945316E-15 -3.49891073E-03  3.20639508E-03  1.78321643E-15 -3.46570842E-16
  1.97606704E-16  1.34595013E-16 -5.47762042E-16 -7.76847218E-02  7.11901301E-02
  4.51547313E-02 -1.08942522E+00 -9.69809460E-15  4.10582955E-15 -6.17650870E-01
  1.62395398E+00  9.52767855E-15 -4.67079796E-15  4.28824682E-01 -1.22972744E-01
 -1.22972744E-01 -8.57724663E-02  2.11405040E-16  3.85160022E-16  4.38315476E-16
  7.51767017E-03 -8.89407945E-02 -1.40636775E-15  4.88833128E-16  1.31859001E-01
 -1.76509840E-01  1.39042597E-15  2.25321396E-16 -3.10090284E-01 -1.89287590E-02
 -1.89287590E-02 -6.06623662E-02 -4.12450327E-16 -1.21560765E-15  3.70048917E-16
 -2.61080510E-02 -9.53997886E-01 -1.64167770E-15 -1.32621006E-16  5.79143573E-01
  1.62653806E-01  3.60893047E-15  7.72743976E-16 -2.03064650E-01 -1.62734524E-02
 -1.62734524E-02 -1.48906163E-01 -1.49124095E-16  1.49421761E-16 -1.62896818E-17
 -2.39882358E-02  4.96009384E-01  4.18002014E-15  1.89591769E-15 -3.66206047E-01
 -3.63601969E-01 -5.51695405E-15 -2.23527469E-15  1.38226204E+00  2.02031535E-01
  2.02031535E-01  1.42811239E-01 -4.40846352E-17 -1.31293421E-16 -9.68533936E-17
  8.61527589E-02 -3.65439340E-01 -1.98115031E-17 -1.13709119E-15  7.02061091E-01
 -2.88727556E-02  5.66592111E-17  4.09644278E-15 -2.24773986E-01 -1.53101480E-01
 -1.53101480E-01  3.29340519E-01  4.30717335E-16  2.32008657E-16 -1.54071924E-15
 -7.43607467E-02 -1.76706023E-01  4.33008046E-17  6.74018110E-15  6.62771260E-01
  8.13213538E-01  1.38578263E-16 -9.65129547E-15 -1.24686710E-01 -3.29419765E-02
 -3.29419765E-02 -4.42130238E-01  3.57018872E-16 -4.95967991E-16  1.22723062E-15
  5.86259300E-16 -3.27206119E-15  5.29610310E-03  1.48686913E-01  6.33238749E-15
  6.23826702E-15 -2.14456692E-02 -6.02082380E-01 -6.15009714E-15 -1.60033554E-15
 -2.48984800E-15  1.76709014E-15 -1.45777139E-15  3.94346683E-03  1.10711952E-01
 -4.16277475E-16  2.45875522E-15 -3.35459558E-02 -9.41795227E-01  4.79120897E-15
 -4.68618724E-15  4.66919853E-02  1.31086707E+00 -1.17183614E-15  2.55943537E-15
 -3.09976362E-16 -2.87483217E-15 -1.92845200E-16 -8.98886047E-04 -2.52360253E-02
 -1.35593651E-16 -2.96379414E-15  1.48686913E-01 -5.29610310E-03  3.63104817E-15
  5.11899749E-16 -6.02082380E-01  2.14456692E-02 -3.43106920E-15 -1.39105370E-15
  2.10646766E-15 -2.89890412E-16 -1.83458700E-16  1.10711952E-01 -3.94346683E-03
 -8.35171303E-18  4.26237273E-15 -9.41795227E-01  3.35459558E-02 -2.33639536E-15
 -6.98746936E-15  1.31086707E+00 -4.66919853E-02  6.07074325E-15  3.80154874E-16
  2.69963827E-15  1.37860419E-15  2.30602274E-16 -2.52360253E-02  8.98886047E-04
 -5.68248898E-02 -2.14961212E-01  2.05114316E-15 -3.48977526E-16  1.31647501E-01
 -3.18833756E+00 -3.80722041E-16  5.90999107E-16  1.99551825E+00  1.43593274E-01
  1.43593274E-01 -2.36807396E-01  2.96779190E-15  5.42753889E-15  1.39361841E-15
 -1.02766887E-01 -1.82435844E+00  1.01902793E-15 -1.26404436E-15 -2.30784735E-01
  5.96591042E+00  1.17711575E-15  1.57874871E-15  1.85781049E+00 -4.03156130E-01
 -4.03156130E-01 -5.58120413E-01  2.44502863E-15 -5.58096601E-15 -2.30061490E-15
  3.01668981E-16 -2.20234586E-16  2.76191692E-16  2.58897421E-15 -1.87148365E-15
  1.53091880E-14  3.37963148E-17 -3.13023347E-15 -9.10390370E-15 -3.19347034E-04
  3.19347034E-04  1.60402680E-15  6.97293538E-01  4.48422798E-15  1.63954797E-15
  5.34823919E-16  7.86994204E-15  2.00760955E-15 -1.51679765E-15  5.74757526E-18
 -2.77184551E-14  4.15386999E-16  2.49084474E-15 -8.40238138E-15 -2.77634016E-04
  2.77634016E-04  2.38430195E-15  6.06213257E-01 -2.99791705E-15 -2.31141137E-15
 -2.03582244E-15 -3.39537219E-15  6.94699019E-15 -4.42717487E-15  4.27200027E-15
 -1.25642702E-13  2.31774368E-15  1.18043837E-15  7.88994783E-14  6.03873918E-01
 -6.03873918E-01 -1.01885309E-14  3.68750192E-04  2.61091565E-15 -5.34829218E-15
 -3.43537141E-15 -7.05302604E-14 -3.40693949E-15  1.36803444E-16 -7.49430632E-15
  2.27583279E-13 -3.35294883E-16 -2.13441242E-15  6.86723030E-14  5.24996081E-01
 -5.24996081E-01 -2.15257088E-14  3.20584148E-04 -8.27822729E-15  6.69749287E-15
  4.03077671E-16 -9.67792279E-16  2.79590320E-01 -1.09032028E-01 -3.61193003E-16
  2.62397903E-14 -1.25186301E-01  4.88189875E-02 -1.64527010E-14 -8.32302949E-15
  1.03069209E-14  3.88248530E-16 -3.04629875E-15  5.88720449E-01 -2.29583716E-01
  1.15635541E-15  1.50269148E-14  2.24097459E-01 -8.73914393E-02  2.39919409E-15
 -4.97204738E-14  8.67877655E-03 -3.38446842E-03 -1.52072801E-14 -1.48210157E-15
  7.26930450E-15  7.64521168E-15 -3.28681756E-15 -5.26667238E-01  2.05384783E-01
  5.32994142E-16  2.46138231E-15  1.09032028E-01  2.79590320E-01  1.39104796E-16
  2.04662907E-14 -4.88189875E-02 -1.25186301E-01 -1.43880374E-14  1.26306419E-15
 -3.26451192E-15  2.48955052E-15 -1.70578845E-15  2.29583716E-01  5.88720449E-01
  7.60102816E-16  1.08894631E-14  8.73914393E-02  2.24097459E-01  2.74522453E-15
 -3.90010279E-14  3.38446842E-03  8.67877655E-03 -1.39304641E-14  7.79963073E-15
 -2.06087445E-15  2.85514122E-15 -5.65128192E-15 -2.05384783E-01 -5.26667238E-01
  1.66911342E-16  6.39241156E-15  2.12254387E-15 -3.19230201E-15 -5.04133195E-15
 -1.85866269E-14  7.29671001E-15 -2.69493138E-15  1.46973833E-14 -6.39128011E-01
  6.39128011E-01 -3.60689270E-15 -8.70930385E-04 -7.75232422E-15  6.99688054E-15
  2.15568697E-16 -9.97985656E-15 -4.53262835E-15  1.61399133E-15 -3.82417433E-16
  2.71434151E-14 -5.08987743E-15  3.02345250E-15  4.75713008E-15  7.05356178E-01
 -7.05356178E-01 -6.47478779E-15  9.61178539E-04 -2.93911144E-15  8.84876878E-15
 -1.61197082E-16  1.97374394E-15  5.07178086E-16  1.48335053E-15 -3.75135986E-16
  3.05281027E-15 -1.13410156E-16  5.83220323E-16 -1.06321965E-15  7.54247838E-04
 -7.54247838E-04 -1.33140240E-15 -7.38001458E-01  6.70085535E-16  5.85844208E-16
  5.00578076E-16  3.87003591E-16  1.36082394E-15  1.78360287E-15  3.93917310E-16
 -5.51633578E-15 -4.67197143E-16 -2.23941415E-15 -1.94753501E-15 -8.32405032E-04
  8.32405032E-04  4.31438161E-16  8.14475159E-01 -1.24810146E-15 -2.59568354E-15
 -1.41990752E-01  3.25111935E-02  3.69756084E-15  4.05015418E-15 -9.76263368E-02
 -9.23483491E-02  1.96798002E-15  1.82550383E-15 -7.17856995E-02 -7.17583589E-01
 -7.17583589E-01  9.22447137E-01 -3.89585716E-16 -8.53034695E-15 -1.01577738E-14
 -3.83648026E-02 -9.09552340E-01 -9.15520448E-16 -1.43258777E-15 -7.38852563E-01
  1.05126560E+00 -4.35603012E-15 -4.41172308E-15  7.34924355E-01 -3.44250749E-01
 -3.44250749E-01  1.55022706E-01  1.65064064E-16 -9.95654936E-15 -1.05091797E-14
 -3.73149999E-16 -2.35568615E-14 -3.18010153E-01  2.66105974E-01  1.44111166E-14
 -1.24917475E-14 -2.31929991E-01  1.94075426E-01  6.12033631E-15  2.49795357E-15
  9.83753469E-15 -1.85634899E-15 -4.73157787E-16  8.39728117E-01 -7.02671490E-01
  5.45754956E-16 -5.31809104E-15  8.50236268E-02 -7.11464548E-02  5.17615967E-15
  2.39849713E-14  4.25824312E-01 -3.56323193E-01  1.55919800E-14  2.57833156E-15
 -1.15230308E-14  1.60330048E-14 -5.07801973E-16  8.65205210E-01 -7.23990327E-01
 -1.58353630E-15  8.57383593E-15 -2.66105974E-01 -3.18010153E-01 -8.32513128E-15
  2.15918181E-15 -1.94075426E-01 -2.31929991E-01 -2.80697914E-15 -7.26371046E-15
 -1.36768825E-14  1.54331593E-14 -6.71627524E-16  7.02671490E-01  8.39728117E-01
 -4.82985961E-16 -1.17451757E-14  7.11464548E-02  8.50236268E-02 -1.21817612E-14
  4.84833208E-15  3.56323193E-01  4.25824312E-01  2.57626472E-15 -3.14774613E-15
 -4.88122384E-16 -5.27772860E-15  9.36101329E-16  7.23990327E-01  8.65205210E-01
 -1.38913699E-01 -1.92333955E+00  4.95710116E-16 -4.33287173E-15  1.64772205E+00
 -1.42182522E+00  3.48713679E-15 -3.87079006E-15  7.54145529E-01  3.66005126E-01
  3.66005126E-01 -7.50804788E-01  1.24068494E-16 -6.72076660E-15  1.12628788E-14
 -3.76991040E-02 -3.94642311E-01 -1.20094161E-15  4.24228487E-16  6.24305206E-01
  3.07072975E+00 -2.56387399E-15  6.73496733E-15  1.86766234E+00 -6.66684980E-01
 -6.66684980E-01  1.62603674E+00  4.75141480E-16 -4.31504511E-15  1.04457720E-14
 -1.30949400E-02 -1.75080371E-01 -9.63756768E-16 -9.04764160E-16 -9.60679236E-02
 -2.14076448E+00 -7.17238380E-16  1.60290837E-15  1.23946179E+00  5.00207834E-02
  5.00207834E-02  1.28011753E-01 -8.51089014E-16  2.18668724E-15 -7.32283710E-16
 -5.35255082E-01 -2.11902295E-01  8.75571863E-17 -6.14263606E-16 -2.81515542E-01
  5.91190423E+00  1.16208443E-15 -5.73643380E-16  1.19412301E+00 -1.82823644E+00
 -1.82823644E+00 -1.59129097E+00  7.25749954E-16  1.58659565E-15 -1.31527459E-15
 -4.50314238E-01  2.99937434E+00  1.02881740E-15 -5.37326799E-16  4.16319911E-01
  3.81738505E-01 -2.51545494E-15  3.20659747E-15  1.86402471E-01 -1.64029012E+00
 -1.64029012E+00 -2.15113385E+00  1.43020701E-15  3.28366190E-15 -2.13308269E-15
  8.59436332E-05  2.27011092E-01  5.40457356E-16  6.74971607E-16  3.52749517E-01
  4.72622205E-01  2.24792271E-15 -3.21961865E-15  3.99067851E-01 -5.08939635E-02
 -5.08939635E-02  1.87838792E-01 -1.00847949E-16  2.39090726E-15 -1.93504269E-15
Total SCF Density                          R   N=         465
  2.08442115E+00 -1.51831533E-01  4.12768867E-01  4.52879516E-16 -9.44484562E-17
  1.65364345E-01 -1.18895594E-16  1.41329154E-16  1.73472348E-16  1.65364345E-01
 -5.38432272E-02  8.44404272E-02  1.95812402E-16 -1.93281473E-16  5.22440121E-01
 -2.32447717E-01  4.59241101E-01 -5.99955640E-16  8.26670790E-16  4.87776974E-01
  8.19020013E-01  5.91538169E-16  2.73834346E-17  6.48771600E-02 -1.04083409E-16
 -1.93055343E-16 -3.95282099E-16  2.54531646E-02 -4.00004639E-16  5.35256580E-17
 -2.42861287E-17  6.48771600E-02  3.09361633E-17  4.13444057E-16 -7.71951947E-17
  2.54531646E-02 -5.69091836E-02  1.09487455E-01  3.53726630E-16 -5.65584898E-16
  1.29016163E-01  2.05256362E-01  7.81336466E-17 -1.92500568E-16  5.21242041E-02
  5.79977135E-04 -1.23640093E-02  2.97393610E-17  7.93844182E-18  2.18016842E-02
  5.26010286E-03  1.12242748E-19  7.35896090E-18  1.71887658E-03  1.59249432E-03
  5.79977135E-04 -1.23640093E-02 -1.50538018E-16 -1.10260032E-17  2.18016842E-02
  5.26010286E-03 -7.06157269E-17 -8.13330360E-20  1.71887658E-03  1.59249432E-03
  1.59249432E-03 -7.68310730E-04  2.62010803E-03 -2.43917635E-16  7.25143773E-17
 -5.26257135E-02 -3.84328947E-02 -7.79518159E-17  2.10714591E-17 -1.01077087E-02
 -2.75791108E-03 -2.75791108E-03  5.93696097E-03 -1.35292348E-16  1.24297791E-16
 -9.33738033E-18 -8.73106996E-17 -5.41566191E-17  7.87693756E-17 -3.66332125E-18
 -3.42544835E-17  2.07327045E-17 -8.62837179E-18 -8.62837179E-18  1.24318785E-17
  1.32470433E-31 -4.71854055E-16 -1.11445719E-16 -2.72359412E-02 -9.28077060E-17
  1.56861307E-16  1.34455857E-16 -1.06854384E-02 -2.16840434E-17 -4.32492670E-17
  9.74274553E-18  3.94349025E-17  1.72766217E-17  1.53789102E-18  4.48583093E-03
  7.48119391E-16 -3.62678084E-16 -1.55257751E-16 -2.72359412E-02  3.29749051E-16
 -2.40847984E-16 -3.20923843E-17 -1.06854384E-02  7.48633222E-17  2.62141606E-17
  2.93376544E-17 -5.44990925E-17  1.43803011E-17  3.62123526E-17  4.48583093E-03
  1.37142295E-02 -1.87304287E-02 -2.59530159E-16  4.21754453E-16  7.52927597E-02
  3.69963235E-02 -1.98527363E-16  6.13070751E-16  5.86154619E-03  6.54170403E-03
  6.54170403E-03 -1.55945213E-02 -5.48445715E-17  4.93373955E-16 -4.83568227E-16
  2.08327482E+00 -2.63260369E-02  2.69993617E-02  3.51558287E-16  3.03249011E-16
 -1.63518693E-01 -9.95392463E-02 -2.42888567E-16  2.50041099E-16 -1.27787467E-02
 -1.35980096E-02 -1.35980096E-02  3.03173299E-02  1.58457604E-16 -1.07296410E-16
 -2.71637968E-16 -1.94110644E-01  5.34602790E-01  1.64612504E-16  1.38805104E-16
  3.19586926E-01  6.10622664E-16  5.13787355E-16 -7.37261304E-16  1.25383088E-01
  6.24500451E-17  7.64125397E-16  5.89615667E-17 -2.89446632E-16 -4.94481818E-16
 -1.80456354E-17 -5.26368047E-02 -3.45209972E-16  2.00063193E-17 -1.19924380E-17
  6.17641025E-01  1.13778759E-16 -8.35792210E-18  2.77555756E-17  3.19586926E-01
 -7.24761789E-17  1.55941967E-15 -3.33066907E-16  1.25383088E-01 -1.09462270E-15
  4.08287284E-17  4.17760700E-18  1.00538041E-16 -1.68738661E-16 -1.28369537E-16
 -5.26368047E-02  5.41569039E-17  4.06588911E-16  5.82867088E-16  6.17641025E-01
 -9.73137475E-02  2.21010582E-01 -2.12290641E-16  1.64403531E-16 -4.20094610E-01
 -1.16993192E-01  4.64391486E-16 -1.12301767E-16 -4.80214541E-02 -2.63748852E-02
 -2.63748852E-02  4.35318484E-02  7.36625341E-17 -2.31547764E-16 -5.27357983E-16
  3.75166752E-02 -9.33778878E-02  9.84934128E-17 -1.58853943E-16  6.94403975E-01
  1.85640196E-02 -8.63136197E-02  9.73700443E-16 -1.47290879E-15 -6.34743728E-02
 -1.29580435E-01 -1.10803354E-16 -4.19493385E-16 -1.58591865E-02 -4.59491603E-03
 -4.59491603E-03  1.74709530E-02  1.12373259E-16 -1.29922456E-16  2.10733674E-16
 -2.15126828E-01  5.16785182E-01  1.06643940E-15 -2.84809245E-15 -2.85356040E-01
  5.62778798E-01 -4.43530597E-16  9.63789527E-17  2.11297814E-01  8.39606162E-16
  4.37546599E-16 -3.94820892E-16  8.28981729E-02  2.11636264E-16  5.33523155E-16
  4.33597114E-17 -1.86993549E-16 -3.34412869E-16 -1.19310366E-17 -3.48013039E-02
 -2.98372438E-16  4.90166415E-16  7.45373767E-17  4.08359002E-01  1.20736754E-15
 -6.45760723E-17  8.05924044E-16  2.69990282E-01  4.84596845E-16 -2.72224818E-17
 -9.02056208E-17  2.11297814E-01 -1.37386986E-16  9.31999546E-16 -2.56739074E-16
  8.28981729E-02 -7.51460037E-16  2.34197108E-17 -8.12512738E-19  7.39667244E-17
 -1.11563106E-16 -6.76542156E-17 -3.48013039E-02 -3.31868834E-16  2.36593692E-16
  1.66533454E-16  4.08359002E-01 -2.06390658E-17 -1.92538778E-15  6.66133815E-16
  2.69990282E-01 -3.90237278E-02  7.86115019E-02  1.32293393E-16 -3.87982740E-16
 -2.05958963E-01 -8.57779448E-02  3.44005458E-16 -2.47683511E-16 -3.11984343E-02
 -1.14249197E-02 -1.14249197E-02  1.96734338E-02  1.79574371E-17 -1.41582655E-16
 -1.48938782E-16  3.41615371E-02 -8.21192835E-02  5.31030279E-16 -9.57446923E-16
  3.36939069E-01 -1.68741019E-01  2.82063522E-16 -5.88194452E-16  1.67895655E-01
  2.06239117E-03 -3.97753541E-03 -1.97012603E-17  1.82725330E-16  7.09304427E-03
  1.75140412E-03 -1.74424926E-17  7.30142634E-17  8.01786002E-04  4.38496622E-04
  4.38496622E-04 -6.93770537E-04 -1.00769545E-18  6.03938874E-18 -1.93112571E-17
 -9.71156597E-03  2.94274171E-03 -5.02178197E-17  3.64932669E-16 -1.28082067E-02
  6.50502613E-03 -3.29261032E-17  2.41373058E-16 -6.30697213E-03  2.75731983E-04
  2.06239117E-03 -3.97753541E-03  4.69287423E-17  1.99501055E-16  7.09304427E-03
  1.75140412E-03  8.69836221E-18  7.95958597E-17  8.01786002E-04  4.38496622E-04
  4.38496622E-04 -6.93770537E-04 -1.00769545E-18 -4.93474739E-18 -2.20742629E-17
 -9.71156597E-03  2.94274171E-03  7.85528518E-17  3.97353819E-16 -1.28082067E-02
  6.50502613E-03  5.22118017E-17  2.62808597E-16 -6.30697213E-03  2.75731983E-04