COBH3 for CDA                                                           
SP        RHF                                                         6-31G(d)            
Number of atoms                            I                6
Info1-9                                    I   N=           9
          14          13           0           0           0         110
           1           1           2
Charge                                     I                0
Multiplicity                               I                1
Number of electrons                        I               22
Number of alpha electrons                  I               11
Number of beta electrons                   I               11
Number of basis functions                  I               51
Number of independent functions            I               51
Number of point charges in /Mol/           I                0
Number of translation vectors              I                0
Atomic numbers                             I   N=           6
           6           8           5           1           1           1
Nuclear charges                            R   N=           6
  6.00000000E+00  8.00000000E+00  5.00000000E+00  1.00000000E+00  1.00000000E+00
  1.00000000E+00
Current cartesian coordinates              R   N=          18
  0.00000000E+00  0.00000000E+00 -1.88254517E-01  0.00000000E+00  0.00000000E+00
 -2.28244902E+00  0.00000000E+00  0.00000000E+00  2.88655667E+00  2.21526925E+00
  0.00000000E+00  3.39597014E+00 -1.10764408E+00 -1.91848776E+00  3.39597014E+00
 -1.10764408E+00  1.91848776E+00  3.39597014E+00
Force Field                                I                0
Int Atom Types                             I   N=           6
           0           0           0           0           0           0
MM charges                                 R   N=           6
  0.00000000E+00  0.00000000E+00  0.00000000E+00  0.00000000E+00  0.00000000E+00
  0.00000000E+00
Integer atomic weights                     I   N=           6
          12          16          11           1           1           1
Real atomic weights                        R   N=           6
  1.20000000E+01  1.59949146E+01  1.10093053E+01  1.00782504E+00  1.00782504E+00
  1.00782504E+00
Atom fragment info                         I   N=           6
           0           0           0           0           0           0
Atom residue num                           I   N=           6
           0           0           0           0           0           0
Nuclear spins                              I   N=           6
           0           0           3           1           1           1
Nuclear ZEff                               R   N=           6
 -3.60000000E+00 -5.60000000E+00 -2.75000000E+00 -1.00000000E+00 -1.00000000E+00
 -1.00000000E+00
Nuclear ZNuc                               R   N=           6
  6.00000000E+00  8.00000000E+00  5.00000000E+00  1.00000000E+00  1.00000000E+00
  1.00000000E+00
Nuclear QMom                               R   N=           6
  0.00000000E+00  0.00000000E+00  4.05900000E+00  0.00000000E+00  0.00000000E+00
  0.00000000E+00
Nuclear GFac                               R   N=           6
  0.00000000E+00  0.00000000E+00  2.68863700E+00  2.79284600E+00  2.79284600E+00
  2.79284600E+00
MicOpt                                     I   N=           6
          -1          -1          -1          -1          -1          -1
Number of contracted shells                I               18
Number of primitive shells                 I               45
Pure/Cartesian d shells                    I                1
Pure/Cartesian f shells                    I                0
Highest angular momentum                   I                2
Largest degree of contraction              I                6
Shell types                                I   N=          18
           0          -1          -1           2           0          -1
          -1           2           0          -1          -1           2
           0           0           0           0           0           0
Number of primitives per shell             I   N=          18
           6           3           1           1           6           3
           1           1           6           3           1           1
           3           1           3           1           3           1
Shell to atom map                          I   N=          18
           1           1           1           1           2           2
           2           2           3           3           3           3
           4           4           5           5           6           6
Primitive exponents                        R   N=          45
  3.04752488E+03  4.57369518E+02  1.03948685E+02  2.92101553E+01  9.28666296E+00
  3.16392696E+00  7.86827235E+00  1.88128854E+00  5.44249258E-01  1.68714478E-01
  8.00000000E-01  5.48467166E+03  8.25234946E+02  1.88046958E+02  5.29645000E+01
  1.68975704E+01  5.79963534E+00  1.55396162E+01  3.59993359E+00  1.01376175E+00
  2.70005823E-01  8.00000000E-01  2.06888225E+03  3.10649570E+02  7.06830330E+01
  1.98610803E+01  6.29930484E+00  2.12702697E+00  4.72797107E+00  1.19033774E+00
  3.59411683E-01  1.26751247E-01  6.00000000E-01  1.87311370E+01  2.82539436E+00
  6.40121692E-01  1.61277759E-01  1.87311370E+01  2.82539436E+00  6.40121692E-01
  1.61277759E-01  1.87311370E+01  2.82539436E+00  6.40121692E-01  1.61277759E-01
Contraction coefficients                   R   N=          45
  1.83473713E-03  1.40373228E-02  6.88426223E-02  2.32184443E-01  4.67941348E-01
  3.62311985E-01 -1.19332420E-01 -1.60854152E-01  1.14345644E+00  1.00000000E+00
  1.00000000E+00  1.83107443E-03  1.39501722E-02  6.84450781E-02  2.32714336E-01
  4.70192898E-01  3.58520853E-01 -1.10777550E-01 -1.48026263E-01  1.13076702E+00
  1.00000000E+00  1.00000000E+00  1.86627459E-03  1.42514817E-02  6.95516185E-02
  2.32572933E-01  4.67078712E-01  3.63431440E-01 -1.30393797E-01 -1.30788951E-01
  1.13094448E+00  1.00000000E+00  1.00000000E+00  3.34946043E-02  2.34726953E-01
  8.13757326E-01  1.00000000E+00  3.34946043E-02  2.34726953E-01  8.13757326E-01
  1.00000000E+00  3.34946043E-02  2.34726953E-01  8.13757326E-01  1.00000000E+00
P(S=P) Contraction coefficients            R   N=          45
  0.00000000E+00  0.00000000E+00  0.00000000E+00  0.00000000E+00  0.00000000E+00
  0.00000000E+00  6.89990666E-02  3.16423961E-01  7.44308291E-01  1.00000000E+00
  0.00000000E+00  0.00000000E+00  0.00000000E+00  0.00000000E+00  0.00000000E+00
  0.00000000E+00  0.00000000E+00  7.08742682E-02  3.39752839E-01  7.27158577E-01
  1.00000000E+00  0.00000000E+00  0.00000000E+00  0.00000000E+00  0.00000000E+00
  0.00000000E+00  0.00000000E+00  0.00000000E+00  7.45975799E-02  3.07846677E-01
  7.43456834E-01  1.00000000E+00  0.00000000E+00  0.00000000E+00  0.00000000E+00
  0.00000000E+00  0.00000000E+00  0.00000000E+00  0.00000000E+00  0.00000000E+00
  0.00000000E+00  0.00000000E+00  0.00000000E+00  0.00000000E+00  0.00000000E+00
Coordinates of each shell                  R   N=          54
  0.00000000E+00  0.00000000E+00 -1.88254517E-01  0.00000000E+00  0.00000000E+00
 -1.88254517E-01  0.00000000E+00  0.00000000E+00 -1.88254517E-01  0.00000000E+00
  0.00000000E+00 -1.88254517E-01  0.00000000E+00  0.00000000E+00 -2.28244902E+00
  0.00000000E+00  0.00000000E+00 -2.28244902E+00  0.00000000E+00  0.00000000E+00
 -2.28244902E+00  0.00000000E+00  0.00000000E+00 -2.28244902E+00  0.00000000E+00
  0.00000000E+00  2.88655667E+00  0.00000000E+00  0.00000000E+00  2.88655667E+00
  0.00000000E+00  0.00000000E+00  2.88655667E+00  0.00000000E+00  0.00000000E+00
  2.88655667E+00  2.21526925E+00  0.00000000E+00  3.39597014E+00  2.21526925E+00
  0.00000000E+00  3.39597014E+00 -1.10764408E+00 -1.91848776E+00  3.39597014E+00
 -1.10764408E+00 -1.91848776E+00  3.39597014E+00 -1.10764408E+00  1.91848776E+00
  3.39597014E+00 -1.10764408E+00  1.91848776E+00  3.39597014E+00
Constraint Structure                       R   N=          18
  0.00000000E+00  0.00000000E+00 -1.88254517E-01  0.00000000E+00  0.00000000E+00
 -2.28244902E+00  0.00000000E+00  0.00000000E+00  2.88655667E+00  2.21526925E+00
  0.00000000E+00  3.39597014E+00 -1.10764408E+00 -1.91848776E+00  3.39597014E+00
 -1.10764408E+00  1.91848776E+00  3.39597014E+00
Num ILSW                                   I              100
ILSW                                       I   N=         100
           0           1           0           0           2           0
           0           0           0           0           0          -1
           0           0           0           0           0           0
           0           0           1           0           0           0
           1           1           0           0           0           0
           0           0      100000           0          -1           0
           0           0           0           0           0           0
           0           0           0           1           0           0
           0           0           1           0           0           0
           0           0           4          41           0           0
           0           0           0           0           0           0
           0           0           0           0           0           0
           0           0           0           0           0           0
           0           0           0           0           0           0
           0           0           0           0           0           0
           0           0           0           0           0           0
           0           0           0           0
Num RLSW                                   I               41
RLSW                                       R   N=          41
  1.00000000E+00  1.00000000E+00  1.00000000E+00  1.00000000E+00  1.00000000E+00
  0.00000000E+00  0.00000000E+00  1.00000000E+00  0.00000000E+00  0.00000000E+00
  0.00000000E+00  0.00000000E+00  1.00000000E+00  0.00000000E+00  0.00000000E+00
  0.00000000E+00  0.00000000E+00  1.00000000E+00  0.00000000E+00  0.00000000E+00
  0.00000000E+00  0.00000000E+00  1.00000000E+00  0.00000000E+00  0.00000000E+00
  0.00000000E+00  0.00000000E+00  1.00000000E+00  0.00000000E+00  0.00000000E+00
  0.00000000E+00  0.00000000E+00  1.00000000E+00  0.00000000E+00  0.00000000E+00
  0.00000000E+00  0.00000000E+00  0.00000000E+00  1.00000000E+00  1.00000000E+00
  0.00000000E+00
MxBond                                     I                4
NBond                                      I   N=           6
           2           1           4           1           1           1
IBond                                      I   N=          24
           2           3           0           0           1           0
           0           0           1           4           5           6
           3           0           0           0           3           0
           0           0           3           0           0           0
RBond                                      R   N=          24
  3.00000000E+00  1.00000000E+00  0.00000000E+00  0.00000000E+00  3.00000000E+00
  0.00000000E+00  0.00000000E+00  0.00000000E+00  1.00000000E+00  1.00000000E+00
  1.00000000E+00  1.00000000E+00  1.00000000E+00  0.00000000E+00  0.00000000E+00
  0.00000000E+00  1.00000000E+00  0.00000000E+00  0.00000000E+00  0.00000000E+00
  1.00000000E+00  0.00000000E+00  0.00000000E+00  0.00000000E+00
Virial Ratio                               R      2.001916012604986E+00
SCF Energy                                 R     -1.391424121111532E+02
Total Energy                               R     -1.391424121111532E+02
RMS Density                                R      4.148617452005300E-09
External E-field                           R   N=          35
  0.00000000E+00  0.00000000E+00  0.00000000E+00  0.00000000E+00  0.00000000E+00
  0.00000000E+00  0.00000000E+00  0.00000000E+00  0.00000000E+00  0.00000000E+00
  0.00000000E+00  0.00000000E+00  0.00000000E+00  0.00000000E+00  0.00000000E+00
  0.00000000E+00  0.00000000E+00  0.00000000E+00  0.00000000E+00  0.00000000E+00
  0.00000000E+00  0.00000000E+00  0.00000000E+00  0.00000000E+00  0.00000000E+00
  0.00000000E+00  0.00000000E+00  0.00000000E+00  0.00000000E+00  0.00000000E+00
  0.00000000E+00  0.00000000E+00  0.00000000E+00  0.00000000E+00  0.00000000E+00
IOpCl                                      I                0
IROHF                                      I                0
Alpha Orbital Energies                     R   N=          51
 -2.07327196E+01 -1.14399647E+01 -7.55936197E+00 -1.59064173E+00 -8.82842015E-01
 -7.95203126E-01 -7.01992753E-01 -7.01992753E-01 -5.54879578E-01 -4.67441180E-01
 -4.67439737E-01  1.16189438E-01  1.16189557E-01  2.77088602E-01  3.02117178E-01
  3.46170450E-01  3.46171610E-01  3.93518895E-01  6.01527224E-01  6.01528450E-01
  7.27142306E-01  7.27142365E-01  7.32601642E-01  8.70765316E-01  9.61167442E-01
  1.09431059E+00  1.14605754E+00  1.14605996E+00  1.19845336E+00  1.19845397E+00
  1.24199273E+00  1.42590359E+00  1.49524057E+00  1.49524083E+00  1.67335828E+00
  1.67335839E+00  1.77099353E+00  1.98952447E+00  1.98952476E+00  2.09039154E+00
  2.09039458E+00  2.12342226E+00  2.24816646E+00  2.24816720E+00  2.97880014E+00
  2.97880015E+00  3.17634287E+00  3.41588827E+00  3.89649105E+00  4.40923730E+00
  4.77355750E+00
Alpha MO coefficients                      R   N=        2601
 -4.06053586E-05  2.10827051E-06 -1.80736911E-11  3.37175866E-16  6.27399646E-04
 -9.83504608E-04 -4.87460731E-11 -3.66517213E-17  8.37342046E-04  6.21076796E-05
  6.21076458E-05 -1.30919261E-03  1.41279663E-16 -5.37862260E-12 -7.04090484E-18
  9.94667478E-01  2.11378735E-02  3.83692720E-12 -3.28361817E-17  2.02585188E-03
  5.60755231E-03  2.15725822E-11  3.72402829E-16  5.92684935E-04 -4.25543734E-03
 -4.25543722E-03 -3.10227770E-03 -3.93350878E-17  1.43405581E-11 -2.72205194E-17
  1.19361452E-05 -1.97901862E-04 -1.99084932E-10  8.41227324E-17 -1.53873943E-04
 -4.08179529E-04  1.95943242E-10 -2.49391343E-16  5.97248262E-05  4.01662094E-05
  4.01664504E-05  3.85311235E-04  1.21231817E-16 -5.60267722E-11 -2.70270003E-17
  1.31170050E-05  6.75984724E-05  1.31168087E-05  6.75983251E-05  1.31168087E-05
  6.75983251E-05  9.96064452E-01  2.69913224E-02 -4.78520364E-10  1.03666730E-16
 -3.02695417E-03 -5.15623146E-03  7.85971415E-10  2.27344786E-16 -7.44580615E-03
 -2.36597725E-03 -2.36597728E-03  9.74283339E-04  4.71727560E-18  3.04759063E-10
 -8.57458925E-16 -5.86846027E-04  1.26601393E-03  1.29032214E-10 -1.50241729E-16
  1.37387144E-04 -9.88042470E-03 -1.64175370E-10 -4.58390675E-16 -4.18417244E-03
  7.29394979E-04  7.29394933E-04 -2.46740657E-05  1.41182120E-18  1.31023104E-10
 -8.76110264E-16 -6.71031347E-05 -3.39493396E-05  1.77676761E-09  8.97557718E-17
 -2.00364550E-04  8.12055298E-03 -9.77220341E-10 -1.02773198E-16 -2.90855122E-03
 -1.51117713E-04 -1.51119762E-04 -7.85108908E-04 -3.35967159E-18  4.47766600E-10
 -1.97523079E-16 -1.45034260E-04 -8.82918711E-04 -1.45034430E-04 -8.82913223E-04
 -1.45034430E-04 -8.82913223E-04 -2.60813092E-04  6.19530394E-04 -4.34880380E-11
 -1.18826272E-16 -1.54087975E-04  5.90996356E-03 -3.10505042E-09  9.14798633E-17
 -3.49451141E-03 -5.98365642E-05 -5.98359840E-05 -7.49890639E-04 -8.13072888E-16
  8.87576399E-11 -1.91201501E-16  2.64362501E-04  1.20584317E-03 -1.09720835E-10
  5.03153260E-17  1.63386792E-04 -7.14337838E-03  1.07322829E-09 -1.10537516E-16
 -1.68879716E-03  6.77502139E-04  6.77502071E-04  6.79706579E-04  7.15500204E-16
  2.58496183E-10 -1.14186707E-16  9.96215839E-01  2.60866666E-02 -9.38839298E-10
  1.38252221E-16 -2.16013195E-03 -1.53641533E-02  1.37709727E-08 -8.70878290E-16
  8.32475854E-04  1.25343982E-05  1.25164900E-05 -3.79263421E-07  6.06819377E-16
  4.23711350E-09 -2.14614140E-16 -1.22626156E-04  3.21808367E-03 -1.22630151E-04
  3.21808650E-03 -1.22630151E-04  3.21808650E-03 -1.21014268E-01  2.21855838E-01
  1.40872483E-09  9.44035048E-16 -2.20081213E-01  5.44341292E-02  3.09304217E-09
 -6.23711263E-18  5.86686879E-02 -2.41130051E-02 -2.41130079E-02  3.41558951E-02
 -1.59402467E-16  6.40201450E-10 -1.30353071E-16 -2.01264651E-01  4.37501823E-01
  2.36680505E-09  2.41928176E-16  1.68199017E-01  3.81812429E-01  2.85364419E-09
 -1.25928097E-16  5.06109499E-02 -5.54359074E-03 -5.54359194E-03  1.97219947E-02
  1.94691166E-16  2.23722373E-10 -2.31125199E-16 -3.14590777E-03  2.85649802E-03
 -3.70498518E-09  2.10736843E-16 -3.56891369E-03 -3.88565251E-02  2.70755722E-09
 -3.69323530E-16  1.68319322E-02 -7.95940575E-04 -7.95935536E-04  2.92560297E-03
 -3.72002138E-17 -1.58574933E-09  1.05167561E-16  1.17316174E-03  2.56610018E-03
  1.17315685E-03  2.56609045E-03  1.17315685E-03  2.56609045E-03 -1.55614247E-01
  3.44338019E-01  6.91859532E-08 -9.49431297E-16  8.78940572E-02  2.83222616E-01
  4.74532302E-08  5.74441398E-16  8.51069658E-02 -1.09297823E-02 -1.09297850E-02
  1.17897888E-02 -8.21528313E-17  5.05177243E-09 -7.51018891E-17  9.20782044E-02
 -2.27429512E-01  3.91180323E-08  2.07444936E-16  3.14127396E-01 -2.92577257E-01
  8.77847529E-09 -1.08374619E-17  1.53414839E-01 -7.72705860E-03 -7.72705992E-03
  1.26871239E-02 -7.72388035E-17  4.04309130E-09  7.81314729E-17 -9.53943050E-02
  1.39741962E-01  3.26217318E-07  7.11516650E-16 -8.16920258E-02  4.12997678E-02
 -1.72698009E-08 -2.07851288E-15  7.39353891E-03  5.84213421E-03  5.84201104E-03
  2.09371156E-02  1.19217349E-16  3.44195565E-09 -1.36067079E-16  5.09790654E-02
  3.29596806E-02  5.09786163E-02  3.29595264E-02  5.09786163E-02  3.29595264E-02
  4.81913918E-03 -5.19806258E-03 -1.37044907E-07  5.60646428E-16 -3.61343487E-01
 -1.22059179E-01 -7.49390207E-08 -8.25401055E-16 -3.34729599E-02 -1.15451911E-02
 -1.15451883E-02  6.53589570E-03 -7.73814314E-17 -8.44691595E-10 -1.04266630E-16
  5.74522772E-02 -1.45124035E-01 -1.32468778E-07  1.05743547E-16  4.40405795E-01
 -2.35758065E-01 -6.84894885E-08  7.69830017E-16  2.16271382E-01 -1.16670437E-02
 -1.16670440E-02  2.40173323E-02 -2.35613336E-16 -1.15518974E-08  1.82919027E-16
  1.12749622E-01 -1.64999920E-01 -5.57980985E-07 -1.23038640E-15  6.04821622E-02
 -1.38301050E-01  1.32822321E-08  3.65868689E-15  1.86031686E-02 -1.04623943E-02
 -1.04621962E-02 -1.31052752E-02 -1.75564532E-16 -1.52415691E-08  1.96110349E-16
 -6.96496361E-02 -4.34895863E-02 -6.96489300E-02 -4.34892932E-02 -6.96489300E-02
 -4.34892932E-02  5.79607081E-08 -1.41389896E-07  3.09207974E-01 -5.76095042E-08
 -2.53578641E-07 -1.34352341E-07  1.18024932E-01 -2.19895895E-08 -4.73221168E-08
  1.45618567E-04 -1.45629226E-04  5.79600539E-09  3.13280119E-11 -4.35560649E-02
  8.11506793E-09  6.53439394E-09 -1.79348091E-08  5.45911289E-01 -1.01710460E-07
  1.68419848E-07 -5.98243572E-08  3.47398693E-01 -6.47249494E-08  7.67401031E-08
 -3.40473744E-05  3.40404636E-05  7.37951323E-09 -7.32467448E-12  4.34561655E-02
 -8.09645437E-09  6.03058016E-09  4.61659826E-08  4.57010283E-02 -8.51463673E-09
  1.44044487E-07 -1.49443378E-07  6.69626015E-03 -1.24760086E-09  3.37540511E-08
  3.29406116E-03 -3.29406161E-03 -2.99181833E-08  7.08665517E-10 -4.40744094E-03
  8.21166202E-10  2.43972509E-02  2.23180017E-02 -1.21986149E-02 -1.11590129E-02
 -1.21986227E-02 -1.11590201E-02  1.08095408E-14 -2.51629651E-14  5.76095069E-08
  3.09207962E-01 -4.63768922E-14 -2.47100268E-14  2.19895946E-08  1.18024904E-01
 -8.48190030E-15  2.71306918E-11 -2.71324644E-11  8.44230215E-16 -1.68146464E-04
 -8.11506688E-09 -4.35560711E-02  1.32026085E-15 -3.07769940E-15  1.01710442E-07
  5.45911381E-01  3.12200746E-14 -1.20557745E-14  6.47249390E-08  3.47398749E-01
  1.36338183E-14 -6.34318286E-12  6.34260492E-12  1.66922428E-15  3.93140696E-05
  8.09645444E-09  4.34561660E-02  1.31080481E-15  1.01498708E-14  8.51470141E-09
  4.57006768E-02  2.65433219E-14 -3.43932196E-14  1.24760233E-09  6.69626519E-03
  6.01297884E-15  6.13726754E-10 -6.13726917E-10 -5.38742177E-15 -3.80362728E-03
 -8.21164132E-10 -4.40745133E-03  4.54552789E-09  4.15813779E-09 -2.11284517E-02
 -1.93278626E-02  2.11284471E-02  1.93278585E-02 -8.93887085E-02  2.05379175E-01
  3.68251099E-08  2.91981106E-16  2.84089846E-01  3.46449537E-01 -7.94504466E-08
 -3.73377330E-15  6.44647414E-02  4.91938912E-03  4.91941657E-03 -8.64128590E-03
 -2.77592074E-16 -1.32926950E-07  2.09308086E-16  1.07241946E-02 -2.25951375E-02
  8.50650843E-07 -6.68777987E-16 -1.28544426E-01 -3.87493660E-02  6.60754572E-07
  1.19251571E-15 -7.67558975E-02  4.25451582E-03  4.25451498E-03 -6.85301298E-03
 -7.08404362E-17  5.03049337E-08  9.14857698E-17  1.08086879E-01 -1.62078522E-01
 -2.82395935E-06 -1.77730837E-15 -2.37959404E-01 -1.71596758E-01 -5.63705581E-07
  1.27194897E-14 -4.91608424E-02 -3.46606370E-02 -3.46599837E-02  3.20676993E-02
 -6.25379119E-16 -1.05978327E-07 -4.06923703E-16 -1.47485517E-01 -1.50339569E-01
 -1.47482445E-01 -1.50336858E-01 -1.47482445E-01 -1.50336858E-01 -4.82860859E-07
  1.08531753E-06  2.88458564E-02 -6.86590525E-12  1.40206854E-06  2.21832260E-06
  3.98674076E-02 -9.49394508E-12  7.78613713E-07  2.07992821E-03 -2.07989807E-03
 -2.94186086E-08  5.71540665E-13  2.08203623E-02 -4.95600436E-12  5.95315497E-08
 -1.88241349E-07 -1.25235349E-01  2.98101757E-11 -5.47515256E-07  9.64753444E-09
 -1.08095473E-01  2.57320774E-11 -3.08308482E-07 -2.04691458E-05  2.04741494E-05
 -4.96927000E-08 -5.72980353E-15 -6.30671209E-03  1.50136784E-12  5.26950298E-07
 -2.03140228E-07  3.77561424E-01 -8.98736537E-11 -1.04322527E-06 -2.87846552E-06
  1.52908748E-01 -3.63829250E-11 -1.56382599E-07  3.19948448E-02 -3.19953932E-02
  1.11668296E-07  8.79379935E-12  3.07189266E-03 -7.31107542E-13  2.59894164E-01
  2.93725385E-01 -1.29948702E-01 -1.46864828E-01 -1.29948702E-01 -1.46864828E-01
  5.67893021E-16  1.01103027E-15  6.86665014E-12  2.88463873E-02  8.30354314E-16
 -9.89547344E-15  9.49109152E-12  3.98678694E-02 -1.18192136E-14  4.95920016E-13
 -4.94276419E-13  1.83873373E-15 -2.40169292E-03  4.95587779E-12  2.08203576E-02
  1.56698051E-16  3.94495046E-16 -2.98099695E-11 -1.25235227E-01  1.10369865E-16
 -6.88900007E-15 -2.57307458E-11 -1.08095549E-01 -5.39200524E-16 -4.48194190E-15
  5.13659475E-15  2.08454866E-17  2.36370152E-05 -1.50125757E-12 -6.30668237E-03
 -9.04058467E-16  3.92872224E-15  8.98720978E-11  3.77560210E-01 -8.11671623E-16
  1.78343235E-14  3.63899094E-11  1.52909635E-01 -6.43398664E-15  7.61225231E-12
 -7.61820034E-12 -2.93829779E-15 -3.69447727E-02  7.31017756E-13  3.07178743E-03
  6.18628483E-11  6.99202496E-11 -2.25075609E-01 -2.54375816E-01  2.25075609E-01
  2.54375816E-01 -9.22712890E-16  7.39252283E-16  4.79623677E-10  4.77619713E-01
 -7.17564209E-17 -1.22823355E-14  6.55839855E-10  6.53100485E-01  3.51078239E-14
 -2.29108281E-12  2.28940373E-12 -2.94015238E-15  2.63341838E-03  2.37548665E-11
  2.36554901E-02 -1.24845191E-15 -2.59127538E-15 -3.52044054E-10 -3.50572857E-01
  3.33494920E-16  3.93330087E-14 -4.72278097E-10 -4.70304918E-01  1.07079977E-14
 -3.02549405E-13  2.98220625E-13 -6.78978050E-16  3.45389703E-04  1.09929765E-11
  1.09470035E-02 -1.58254813E-15 -8.92534547E-15 -2.87244452E-11 -2.86036619E-02
  1.93265159E-15  3.41753902E-14  2.26000875E-10  2.25050155E-01  2.20812693E-14
 -1.03121542E-11  1.03177083E-11  2.65769667E-15  1.18613678E-02 -3.76643030E-11
 -3.75068605E-02 -1.05109497E-10 -4.39033091E-10  9.06481335E-02  3.78601556E-01
 -9.06481334E-02 -3.78601556E-01  3.56859825E-08 -1.24493529E-07  4.77619966E-01
 -4.79623760E-10 -1.40517330E-07  3.93317889E-07  6.53100865E-01 -6.55829321E-10
 -1.20748434E-06 -2.28057186E-03  2.28058259E-03 -2.21641357E-08 -2.64489063E-12
  2.36554719E-02 -2.37548515E-11  4.92128451E-08  6.61615390E-08 -3.50573085E-01
  3.52043104E-10 -2.99300047E-08 -1.32848717E-06 -4.70305209E-01  4.72273643E-10
 -3.71847636E-07 -2.99053844E-04  2.99178089E-04  3.53744084E-08 -3.46834577E-13
  1.09470131E-02 -1.09934018E-11  2.70174485E-07 -6.68288721E-07 -2.86047032E-02
  2.87250854E-11 -2.38407289E-07  1.50581470E-06  2.25051041E-01 -2.26029836E-10
 -4.32362783E-07 -1.02721685E-02  1.02721418E-02 -4.92152570E-08 -1.19107468E-11
 -3.75069102E-02  3.76646828E-11 -1.04671076E-01 -4.37170681E-01  5.23357134E-02
  2.18586229E-01  5.23357135E-02  2.18586230E-01 -6.15124905E-02  1.04411923E-01
  1.34569307E-06 -4.57705637E-14  1.59140730E-01  2.21070507E-01  3.67901859E-06
 -2.10097679E-13  1.90590804E+00 -3.67596874E-03 -3.67603777E-03 -3.16254749E-03
  3.86703819E-15 -4.62979704E-08  1.96250133E-15 -5.57888623E-02 -6.19678510E-02
 -8.89937028E-07  3.33140690E-14 -1.07081934E-02  1.66209322E+00 -1.70642774E-06
  8.47026923E-14  4.35025817E-01 -6.64816126E-02 -6.64816201E-02 -2.42868196E-02
  1.05664061E-15  3.79789957E-08  2.93558314E-16 -4.80676869E-02  2.28930544E-01
 -2.04480505E-06  4.79599265E-14  7.42805647E-02 -4.42252390E-01 -8.68920877E-06
  6.87774588E-13  1.71511731E+00  1.21294566E-02  1.21295952E-02  4.52699161E-03
 -4.58415505E-16 -3.72563511E-08  4.03016905E-15 -1.65162660E-02 -5.62674147E-01
 -1.65163750E-02 -5.62682508E-01 -1.65163750E-02 -5.62682508E-01 -7.07552181E-02
  4.46324222E-02 -5.70037705E-07  1.84718074E-14  2.63956885E-02  2.19009000E+00
 -1.68171933E-06  7.51997078E-14 -1.28192233E+00  8.02744102E-03  8.02749867E-03
 -3.12893745E-02 -1.57606379E-15  5.72446525E-09 -9.16250278E-16  9.10646616E-02
 -7.24953285E-02  3.09304154E-07 -1.28597533E-14 -1.27435774E-01 -1.89286149E+00
  7.32028840E-07 -2.98797517E-14 -6.89086700E-01  5.81821754E-02  5.81821819E-02
 -3.37277480E-03 -2.97768752E-16 -1.51255462E-08  2.55580655E-17  7.76847610E-02
 -2.11899478E-01  2.11978726E-07 -2.48097701E-14  2.86102956E-01  1.39177020E-01
  5.61554016E-06 -2.57994284E-13  5.71752327E-01 -3.09683174E-02 -3.09682620E-02
 -7.69550708E-03 -1.87813527E-16  1.71224556E-07 -1.31568253E-15 -4.72609486E-02
  1.76404145E-02 -4.72608762E-02  1.76471726E-02 -4.72608762E-02  1.76471726E-02
  5.67742417E-14 -3.63033644E-14  1.45346681E-09 -1.59659751E-01 -1.31181077E-13
 -4.92701837E-13  5.62772524E-09 -6.18189481E-01 -2.32767932E-12  1.32201501E-10
 -1.32191033E-10 -1.00130481E-15  1.67678727E-02 -9.29728537E-11  1.02129746E-02
  6.20197377E-14  2.78748634E-14 -9.24646648E-10  1.01570226E-01  1.32732498E-14
 -1.82637728E-12 -2.22907276E-09  2.44857793E-01 -4.70990225E-13  2.08562420E-11
 -2.07387124E-11  1.24889883E-14  2.63797070E-03  3.62680232E-11 -3.98398618E-03
 -1.02631163E-13 -2.68186501E-13 -2.19318444E-09  2.40917694E-01  1.24165122E-13
  3.77038520E-12 -2.00406223E-08  2.20139111E+00 -1.30605458E-12  1.52979057E-10
 -1.52940477E-10  3.28773870E-14  1.94020480E-02 -8.74844119E-11  9.60976606E-03
  3.55637663E-10  1.85012711E-08  3.38312006E-02  1.76010523E+00 -3.38312010E-02
 -1.76010525E+00 -5.91003047E-07  7.09587353E-07 -1.59659130E-01 -1.45347804E-09
  1.55230691E-06  1.58710640E-08 -6.18191355E-01 -5.62768073E-09  2.73728272E-05
 -1.45215312E-02  1.45214079E-02 -1.29496879E-07  1.52646855E-10  1.02129808E-02
  9.29747405E-11 -8.36294367E-07 -3.11087370E-07  1.01569693E-01  9.24649366E-10
 -3.96971970E-08  2.38386622E-05  2.44857856E-01  2.22906295E-09  6.62181277E-06
 -2.28537258E-03  2.28375342E-03 -1.17423004E-07  2.40148247E-11 -3.98394830E-03
 -3.62701013E-11  1.01812703E-06  1.31320161E-06  2.40916173E-01  2.19323035E-09
 -1.82944992E-06 -1.79508604E-05  2.20141268E+00  2.00403692E-08  1.74827914E-05
 -1.68027851E-02  1.68024195E-02 -3.19166558E-07  1.76629046E-10  9.60978423E-03
  8.74828117E-11 -3.90643796E-02 -2.03241480E+00  1.95321002E-02  1.01621019E+00
  1.95320996E-02  1.01621015E+00  6.46881965E-02 -2.36179178E-02 -1.06550557E-06
  1.22141985E-13 -9.94693688E-02 -8.13154398E-01 -3.93294024E-06  3.52846816E-13
 -2.12028886E+00  4.89143405E-03  4.89179316E-03  2.44633464E-02 -1.10668885E-14
  4.00718599E-08 -8.70853340E-15  4.53860855E-02  3.34608772E-02  4.44188224E-07
 -6.80260388E-14  4.20343349E-02 -1.50239839E+00  1.46328124E-06 -1.43026606E-13
 -3.59204168E-01  4.77297587E-02  4.77298196E-02  4.88782802E-03 -1.18072449E-15
 -3.25389552E-08  6.12565549E-15 -1.70091506E-01  6.03604033E-03  5.33298979E-07
 -2.13746675E-13  1.72136022E-01  4.66827988E+00  1.98313256E-05 -1.32854129E-12
 -1.06347147E+00  3.62300672E-02  3.62303933E-02  4.49671905E-02 -2.12884580E-14
  1.50771914E-07 -6.06626493E-15  3.07030316E-02 -1.45052363E+00  3.07034812E-02
 -1.45048877E+00  3.07034812E-02 -1.45048877E+00  5.68147137E-07 -1.78379630E-06
 -3.03702130E-01  1.06764241E-10 -9.27204413E-07 -5.31880768E-06  3.04931220E-02
 -1.07179286E-11 -4.26612459E-06 -4.14176943E-03  4.14123728E-03  4.61811535E-07
 -1.68151559E-12 -1.88379268E-02  6.62178640E-12 -7.54019257E-08  1.09368986E-06
 -1.16585651E-02  4.09817185E-12  8.53083563E-07 -2.64370176E-06  6.50827517E-02
 -2.28801013E-11 -1.77289988E-07 -1.46798136E-04  1.47407648E-04  6.44234770E-08
 -5.97369023E-14 -2.74906379E-02  9.66420096E-12 -7.31782501E-07 -8.53363077E-06
 -9.77404579E-01  3.43591668E-10 -4.26667632E-06  2.42416764E-05  1.24229694E+00
 -4.36721149E-10  2.66543805E-07 -5.71950168E-02  5.71948849E-02 -3.07347154E-07
 -2.32181692E-11  1.64026563E-02 -5.76571382E-12 -2.49205467E-01  5.65132004E-03
  1.24600118E-01 -2.83009607E-03  1.24600118E-01 -2.83009607E-03  1.65973989E-16
 -9.77812661E-15 -1.06768458E-10 -3.03704541E-01 -3.91609854E-15 -6.60541725E-16
  1.07154889E-11  3.04974934E-02  2.14217858E-14 -1.45714049E-12  1.45547251E-12
 -7.49888195E-16  4.78224221E-03 -6.62213727E-12 -1.88379893E-02 -7.32881050E-16
 -2.36724067E-17 -4.09625072E-12 -1.16591154E-02  2.83370246E-16  1.85510275E-14
  2.28806253E-11  6.50822379E-02  5.85894165E-15 -5.24774354E-14  5.10811221E-14