[Molden Format]
[Title]
 Molden file created by orca_2mkl for BaseName=BH3

[Atoms] AU
B    1   5          0.0000000000         0.0000000000         2.8865566696 
H    2   1          2.2152692550         0.0000000000         3.3959701435 
H    3   1         -1.1076440761        -1.9184877657         3.3959701435 
H    4   1         -1.1076440761         1.9184877657         3.3959701435 
[GTO]
  1 0
s   6 1.0 
     2068.8823000000         0.4080312436
      310.6495700000         0.7515774990
       70.6830330000         1.2083802892
       19.8610800000         1.5594497266
        6.2993048000         1.3236393043
        2.1270270000         0.4562073983
s   3 1.0 
        4.7279710000        -0.2979704255
        1.1903377000        -0.1062266889
        0.3594117000         0.3741498096
p   3 1.0 
        4.7279710000         0.7413246601
        1.1903377000         0.5455848787
        0.3594117000         0.2949076838
s   1 1.0 
        0.1267512000         0.1513993993
p   1 1.0 
        0.1267512000         0.1078028363
d   1 1.0 
        0.6000000000         1.1660972515

  2 0
s   3 1.0 
       18.7311370000         0.2149354183
        2.8253937000         0.3645711272
        0.6401217000         0.4150514277
s   1 1.0 
        0.1612778000         0.1813806839

  3 0
s   3 1.0 
       18.7311370000         0.2149354183
        2.8253937000         0.3645711272
        0.6401217000         0.4150514277
s   1 1.0 
        0.1612778000         0.1813806839

  4 0
s   3 1.0 
       18.7311370000         0.2149354183
        2.8253937000         0.3645711272
        0.6401217000         0.4150514277
s   1 1.0 
        0.1612778000         0.1813806839

[5D]
[9G]
[MO]
 Sym=     1a
 Ene= -7.61176699721203E+000
 Spin= Alpha
 Occup= 2.000000
  1       0.996292512883
  2       0.023159430810
  3      -0.000000011748
  4       0.000000000000
  5      -0.001014939326
  6      -0.011733820189
  7       0.000000021887
  8      -0.000000000000
  9      -0.000199622527
 10      -0.000677136598
 11      -0.000000007981
 12      -0.000000000000
 13       0.000000010423
 14      -0.000000000000
 15      -0.000145254394
 16       0.002357765164
 17      -0.000145260310
 18       0.002357781716
 19      -0.000145260310
 20       0.002357781716
 Sym=     1a
 Ene= -7.01736695181727E-001
 Spin= Alpha
 Occup= 2.000000
  1       0.192862349509
  2      -0.341107097111
  3      -0.000001851659
  4       0.000000000000
  5      -0.049056991780
  6      -0.257261781469
  7      -0.000000339741
  8       0.000000000000
  9       0.004310115665
 10       0.026599606351
 11       0.000000037809
 12       0.000000000000
 13      -0.000000317935
 14      -0.000000000000
 15      -0.162292653628
 16      -0.121831123829
 17      -0.162290447239
 18      -0.121830148383
 19      -0.162290447239
 20      -0.121830148383
 Sym=     1a
 Ene= -4.86422932267079E-001
 Spin= Alpha
 Occup= 2.000000
  1       0.000000183765
  2       0.000000122321
  3       0.403099650771
  4       0.000000001689
  5      -0.000003261873
  6      -0.000001676455
  7       0.144943236917
  8       0.000000000609
  9      -0.000002829988
 10       0.000000126360
 11       0.012759766598
 12       0.000000000053
 13       0.039545120603
 14      -0.000000000165
 15       0.270973111867
 16       0.299672733346
 17      -0.135487631533
 18      -0.149837653959
 19      -0.135487629568
 20      -0.149837651790
 Sym=     1a
 Ene= -4.86421180654640E-001
 Spin= Alpha
 Occup= 2.000000
  1       0.000000000000
  2       0.000000000000
  3       0.000000001689
  4      -0.403098485475
  5      -0.000000000000
  6      -0.000000000000
  7       0.000000000609
  8      -0.144944397015
  9      -0.000000000000
 10       0.000000000000
 11       0.000000000053
 12      -0.012759873813
 13       0.000000000165
 14       0.039545175163
 15       0.000000001134
 16       0.000000001252
 17       0.234669813697
 18       0.259525941645
 19      -0.234669814832
 20      -0.259525942897
 Sym=     1a
 Ene= 7.16764748221417E-002
 Spin= Alpha
 Occup= 0.000000
  1      -0.048472649310
  2       0.025732419347
  3      -0.000000852466
  4      -0.000000000000
  5      -0.336503324503
  6       0.349057532164
  7      -0.000001117111
  8      -0.000000000000
  9      -0.690671740377
 10       0.006454341866
 11      -0.000000116655
 12      -0.000000000000
 13      -0.000000124115
 14       0.000000000000
 15      -0.038098460167
 16      -0.081166632452
 17      -0.038096489243
 18      -0.081162589640
 19      -0.038096489243
 20      -0.081162589640
 Sym=     1a
 Ene= 3.09143233183066E-001
 Spin= Alpha
 Occup= 0.000000
  1      -0.000000000000
  2       0.000000000000
  3      -0.000000001345
  4      -0.197820744951
  5       0.000000000000
  6       0.000000000005
  7      -0.000000013024
  8      -1.914656746216
  9       0.000000000001
 10       0.000000000000
 11       0.000000000047
 12       0.006958866347
 13       0.000000000166
 14      -0.024387693392
 15       0.000000000611
 16       0.000000012888
 17      -0.077744949584
 18      -1.641112159364
 19       0.077744948973
 20       1.641112146468
 Sym=     1a
 Ene= 3.09144340602353E-001
 Spin= Alpha
 Occup= 0.000000
  1       0.000004098075
  2      -0.000005554533
  3       0.197818457751
  4      -0.000000001345
  5      -0.000002165881
  6      -0.000049411580
  7       1.914674607259
  8      -0.000000013023
  9      -0.000010326161
 10      -0.000000156480
 11      -0.006958885782
 12       0.000000000047
 13      -0.024387498657
 14      -0.000000000166
 15      -0.089770918800
 16      -1.894983364445
 17       0.044886206716
 18       0.947533013306
 19       0.044886207775
 20       0.947533035633
 Sym=     1a
 Ene= 3.28029308877615E-001
 Spin= Alpha
 Occup= 0.000000
  1       0.165153423321
  2      -0.209067599470
  3      -0.000002756288
  4      -0.000000000000
  5      -0.060241359808
  6      -2.853944566397
  7      -0.000048489488
  8      -0.000000000003
  9      -0.636863570218
 10      -0.006868693001
 11       0.000000003290
 12       0.000000000000
 13       0.000000661987
 14      -0.000000000000
 15       0.019122765549
 16       1.423327160313
 17       0.019119650470
 18       1.423249616247
 19       0.019119650470
 20       1.423249616252
 Sym=     1a
 Ene= 5.69915028978086E-001
 Spin= Alpha
 Occup= 0.000000
  1      -0.000000351477
  2      -0.000020355304
  3      -1.019523376649
  4      -0.000000097604
  5      -0.000001937452
  6       0.000030607400
  7       1.075776199925
  8       0.000000102989
  9       0.000003947508
 10       0.000000774342
 11      -0.018080882951
 12      -0.000000001731
 13      -0.056629782370
 14       0.000000005421
 15      -0.249476250792
 16       0.196392201104
 17       0.124732933829
 18      -0.098199934861
 19       0.124732892463
 20      -0.098199902297
 Sym=     1a
 Ene= 5.69916333226945E-001
 Spin= Alpha
 Occup= 0.000000
  1       0.000000000000
  2       0.000000000002
  3       0.000000097604
  4      -1.019525912689
  5       0.000000000000
  6      -0.000000000003
  7      -0.000000102989
  8       1.075781458716
  9      -0.000000000000
 10      -0.000000000000
 11       0.000000001731
 12      -0.018080976544
 13       0.000000005421
 14       0.056630456542
 15       0.000000023884
 16      -0.000000018801
 17       0.216049303220
 18      -0.170077296706
 19      -0.216049327103
 20       0.170077315507
 Sym=     1a
 Ene= 6.48550477113299E-001
 Spin= Alpha
 Occup= 0.000000
  1      -0.028069523946
  2      -0.485047520221
  3       0.000007274774
  4       0.000000000000
  5      -1.122996849743
  6       0.998540182297
  7      -0.000010825137
  8      -0.000000000000
  9       1.094521951182
 10       0.057376280584
 11       0.000000123139
 12      -0.000000000000
 13       0.000000478277
 14       0.000000000000
 15      -0.146361916073
 16      -0.155543118584
 17      -0.146363248498
 18      -0.155545848094
 19      -0.146363248498
 20      -0.155545848094
 Sym=     1a
 Ene= 6.72931136138309E-001
 Spin= Alpha
 Occup= 0.000000
  1      -0.023709030728
  2      -1.727597989488
  3       0.000013444183
  4       0.000000000000
  5       0.455256299627
  6       3.087781414625
  7      -0.000014794890
  8       0.000000000000
  9      -0.019077257862
 10       0.089971091659
 11       0.000000371735
 12      -0.000000000000
 13       0.000000643595
 14       0.000000000000
 15      -0.217398178422
 16      -0.566159762085
 17      -0.217402802684
 18      -0.566157321212
 19      -0.217402802684
 20      -0.566157321212
 Sym=     1a
 Ene= 1.15162461700938E+000
 Spin= Alpha
 Occup= 0.000000
  1      -0.000000000000
  2       0.000000000001
  3      -0.000000001135
  4      -0.688875031920
  5       0.000000000000
  6      -0.000000000003
  7       0.000000002130
  8       1.293443723968
  9      -0.000000000000
 10       0.000000000000
 11       0.000000000289
 12       0.175440207130
 13       0.000000000628
 14      -0.380952102075
 15       0.000000001375
 16      -0.000000002731
 17      -0.722982257228
 18       1.436415577105
 19       0.722982255852
 20      -1.436415574370
 Sym=     1a
 Ene= 1.15162753073802E+000
 Spin= Alpha
 Occup= 0.000000
  1       0.000001683443
  2      -0.000041590418
  3       0.688878905927
  4      -0.000000001135
  5      -0.000006977269
  6       0.000091807677
  7      -1.293451826242
  8       0.000000002131
  9       0.000013483381
 10      -0.000009460597
 11      -0.175442753822
 12       0.000000000289
 13      -0.380952770789
 14      -0.000000000628
 15      -0.834804933218
 16       1.658593732083
 17       0.417435417419
 18      -0.829358710868
 19       0.417435419801
 20      -0.829358715600
 Sym=     1a
 Ene= 1.19136050402581E+000
 Spin= Alpha
 Occup= 0.000000
  1       0.053148710766
  2      -1.349445228461
  3      -0.000024172234
  4      -0.000000000001
  5      -0.249832291697
  6       3.109332950770
  7       0.000044516950
  8       0.000000000001
  9       0.483085670872
 10      -0.296095499676
 11       0.000005552688
 12       0.000000000000
 13       0.000015083145
 14      -0.000000000000
 15       0.634387953656
 16      -1.317490078980
 17       0.634347825195
 18      -1.317402785035
 19       0.634347825197
 20      -1.317402785038
 Sym=     1a
 Ene= 1.49222725916140E+000
 Spin= Alpha
 Occup= 0.000000
  1      -0.000000104765
  2       0.000001296902
  3      -0.004964025115
  4      -0.000000000075
  5       0.000000485716
  6      -0.000002102674
  7       0.017191324063
  8       0.000000000259
  9      -0.000000331521
 10       0.000000658748
 11      -0.903369798071
 12      -0.000000013599
 13       0.428767205779
 14      -0.000000006454
 15      -0.013834103102
 16      -0.004861817355
 17       0.006915606696
 18       0.002432394333
 19       0.006915606335
 20       0.002432394207
 Sym=     1a
 Ene= 1.49222739238506E+000
 Spin= Alpha
 Occup= 0.000000
  1      -0.000000000000
  2       0.000000000000
  3      -0.000000000075
  4       0.004963305966
  5       0.000000000000
  6      -0.000000000000
  7       0.000000000259
  8      -0.017190958150
  9      -0.000000000000
 10       0.000000000000
 11      -0.000000013599
 12       0.903370950432
 13       0.000000006454
 14       0.428764779441
 15      -0.000000000208
 16      -0.000000000073
 17      -0.011980977714
 18      -0.004210346900
 19       0.011980977923
 20       0.004210346974
 Sym=     1a
 Ene= 1.77302011519299E+000
 Spin= Alpha
 Occup= 0.000000
  1       0.061483725457
  2       0.028817127369
  3      -0.000000716623
  4       0.000000000000
  5      -0.063637378887
  6      -0.572778664306
  7       0.000004284916
  8      -0.000000000000
  9      -0.120014453596
 10       1.031978224990
 11       0.000004029560
 12      -0.000000000000
 13       0.000007444368
 14       0.000000000000
 15       0.437486739145
 16       0.031344682425
 17       0.437495181661
 18       0.031342860428
 19       0.437495181661
 20       0.031342860428
 Sym=     1a
 Ene= 2.08070643522424E+000
 Spin= Alpha
 Occup= 0.000000
  1       0.000000000000
  2       0.000000000000
  3      -0.000000000112
  4       0.324576004438
  5       0.000000000000
  6      -0.000000000000
  7      -0.000000000072
  8       0.208850503884
  9      -0.000000000000
 10       0.000000000000
 11      -0.000000000160
 12       0.466255454972
 13      -0.000000000339
 14      -0.985894654817
 15       0.000000000310
 16      -0.000000000085
 17       0.781622135729
 18      -0.214106365493
 19      -0.781622136039
 20       0.214106365578
 Sym=     1a
 Ene= 2.08070980306258E+000
 Spin= Alpha
 Occup= 0.000000
  1       0.000000969611
  2      -0.000007127474
  3      -0.324583908863
  4      -0.000000000112
  5      -0.000002977061
  6       0.000000973916
  7      -0.208849753423
  8      -0.000000000072
  9      -0.000000201567
 10       0.000009840520
 11      -0.466258683674
 12      -0.000000000160
 13      -0.985894671625
 14       0.000000000339
 15       0.902553213621
 16      -0.247231720873
 17      -0.451264192627
 18       0.123612285880
 19      -0.451264192090
 20       0.123612285733
