[Molden Format]
[Title]
 Molden file created by orca_2mkl for BaseName=CO

[Atoms] AU
C    1   6          0.0000000000         0.0000000000        -0.1882545175 
O    2   8          0.0000000000         0.0000000000        -2.2824490191 
[GTO]
  1 0
s   6 1.0 
     3047.5249000000         0.5363343823
      457.3695100000         0.9894506076
      103.9486900000         1.5972822308
       29.2101550000         2.0791870615
        9.2866630000         1.7741742532
        3.1639270000         0.6125798260
s   3 1.0 
        7.8682724000        -0.3995563516
        1.8812885000        -0.1841552393
        0.5442493000         0.5163903794
p   3 1.0 
        7.8682724000         1.2960827175
        1.8812885000         0.9937536282
        0.5442493000         0.4959527138
s   1 1.0 
        0.1687144000         0.1876178721
p   1 1.0 
        0.1687144000         0.1541275509
d   1 1.0 
        0.8000000000         1.9292013661

  2 0
s   6 1.0 
     5484.6717000000         0.8317352088
      825.2349500000         1.5308074829
      188.0469600000         2.4771490916
       52.9645000000         3.2562802462
       16.8975700000         2.7928936336
        5.7996353000         0.9549376963
s   3 1.0 
       15.5396160000        -0.6179336976
        3.5999336000        -0.2757210088
        1.0137618000         0.8142076427
p   3 1.0 
       15.5396160000         3.1169455889
        3.5999336000         2.4014372483
        1.0137618000         1.0543605133
s   1 1.0 
        0.2700058000         0.2669561389
p   1 1.0 
        0.2700058000         0.2774319373
d   1 1.0 
        0.8000000000         1.9292013661

[5D]
[9G]
[MO]
 Sym=     1a
 Ene= -2.06718997914894E+001
 Spin= Alpha
 Occup= 2.000000
  1       0.000132892028
  2      -0.000497637784
  3      -0.000000000000
  4       0.000000000000
  5       0.000829304778
  6       0.004931796929
  7       0.000000000000
  8       0.000000000000
  9      -0.003061591795
 10      -0.001003802592
 11       0.000000000000
 12       0.000000000000
 13      -0.000000000000
 14       0.000000000000
 15       0.995807096526
 16       0.022857742305
 17      -0.000000000000
 18      -0.000000000000
 19       0.002407310852
 20      -0.010273396564
 21      -0.000000000000
 22      -0.000000000000
 23      -0.002683192440
 24       0.000550159618
 25       0.000000000000
 26      -0.000000000000
 27       0.000000000000
 28      -0.000000000000
 Sym=     1a
 Ene= -1.13547324465940E+001
 Spin= Alpha
 Occup= 2.000000
  1      -0.996351916535
  2      -0.022968442011
  3      -0.000000000000
  4       0.000000000000
  5       0.004743697697
  6       0.001836683466
  7       0.000000000000
  8      -0.000000000000
  9       0.001131143148
 10      -0.002206121545
 11      -0.000000000000
 12      -0.000000000000
 13       0.000000000000
 14      -0.000000000000
 15       0.000763431138
 16      -0.000442586987
 17      -0.000000000000
 18      -0.000000000000
 19       0.000041673173
 20       0.005062003950
 21      -0.000000000000
 22       0.000000000000
 23       0.003927436270
 24       0.000729784887
 25       0.000000000000
 26      -0.000000000000
 27      -0.000000000000
 28       0.000000000000
 Sym=     1a
 Ene= -1.53324451367547E+000
 Spin= Alpha
 Occup= 2.000000
  1       0.116705516145
  2      -0.215345827915
  3       0.000000000000
  4       0.000000000000
  5       0.216674608453
  6      -0.031527902840
  7       0.000000000000
  8      -0.000000000000
  9      -0.020742059636
 10      -0.041007301978
 11      -0.000000000000
 12       0.000000000000
 13      -0.000000000000
 14       0.000000000000
 15       0.203034200719
 16      -0.441950991052
 17      -0.000000000000
 18       0.000000000000
 19      -0.165545511252
 20      -0.369818513266
 21      -0.000000000000
 22       0.000000000000
 23      -0.043748020148
 24      -0.015250792103
 25      -0.000000000000
 26       0.000000000000
 27       0.000000000000
 28      -0.000000000000
 Sym=     1a
 Ene= -7.98208074119488E-001
 Spin= Alpha
 Occup= 2.000000
  1      -0.125601574448
  2       0.273851932852
  3       0.000000000000
  4       0.000000000000
  5      -0.127868426705
  6       0.163439449073
  7       0.000000000000
  8       0.000000000000
  9       0.026211776117
 10       0.018287481347
 11      -0.000000000000
 12      -0.000000000000
 13       0.000000000000
 14       0.000000000000
 15       0.106750516081
 16      -0.259346398840
 17       0.000000000000
 18       0.000000000000
 19       0.507860840456
 20      -0.396086156304
 21       0.000000000000
 22       0.000000000000
 23       0.250081306178
 24       0.022803612156
 25       0.000000000000
 26       0.000000000000
 27       0.000000000000
 28      -0.000000000000
 Sym=     1a
 Ene= -6.41681239189699E-001
 Spin= Alpha
 Occup= 2.000000
  1      -0.000000000000
  2       0.000000000000
  3      -0.036852936488
  4      -0.285336280324
  5       0.000000000000
  6       0.000000000000
  7      -0.014432563583
  8      -0.111745071105
  9       0.000000000000
 10       0.000000000000
 11       0.006068639523
 12       0.046986839939
 13      -0.000000000000
 14       0.000000000000
 15       0.000000000000
 16      -0.000000000000
 17      -0.071163440278
 18      -0.550987608563
 19       0.000000000000
 20      -0.000000000000
 21      -0.047081025251
 22      -0.364527929090
 23       0.000000000000
 24       0.000000000000
 25      -0.005314492797
 26      -0.041147809405
 27       0.000000000000
 28      -0.000000000000
 Sym=     1a
 Ene= -6.41681239189696E-001
 Spin= Alpha
 Occup= 2.000000
  1       0.000000000000
  2      -0.000000000000
  3       0.285336280324
  4      -0.036852936488
  5       0.000000000000
  6      -0.000000000000
  7       0.111745071105
  8      -0.014432563583
  9       0.000000000000
 10      -0.000000000000
 11      -0.046986839939
 12       0.006068639523
 13      -0.000000000000
 14       0.000000000000
 15      -0.000000000000
 16       0.000000000000
 17       0.550987608563
 18      -0.071163440278
 19      -0.000000000000
 20       0.000000000000
 21       0.364527929090
 22      -0.047081025251
 23      -0.000000000000
 24      -0.000000000000
 25       0.041147809405
 26      -0.005314492797
 27      -0.000000000000
 28       0.000000000000
 Sym=     1a
 Ene= -5.45019072441838E-001
 Spin= Alpha
 Occup= 2.000000
  1       0.141844098989
  2      -0.272250453815
  3      -0.000000000000
  4      -0.000000000000
  5      -0.445004623528
  6      -0.615122944388
  7      -0.000000000000
  8      -0.000000000000
  9      -0.156642368660
 10       0.030780534465
 11       0.000000000000
 12       0.000000000000
 13      -0.000000000000
 14      -0.000000000000
 15      -0.016551957676
 16       0.040572224640
 17       0.000000000000
 18      -0.000000000000
 19       0.246458747028
 20       0.025281794017
 21       0.000000000000
 22      -0.000000000000
 23       0.143475792628
 24       0.011153548330
 25       0.000000000000
 26      -0.000000000000
 27      -0.000000000000
 28      -0.000000000000
 Sym=     1a
 Ene= 1.70545208434439E-001
 Spin= Alpha
 Occup= 0.000000
  1       0.000000000000
  2       0.000000000000
  3       0.108267702774
  4      -0.422011923058
  5       0.000000000000
  6      -0.000000000000
  7       0.193050256874
  8      -0.752482116665
  9       0.000000000000
 10       0.000000000000
 11       0.002724021079
 12      -0.010617842112
 13       0.000000000000
 14       0.000000000000
 15      -0.000000000000
 16       0.000000000000
 17      -0.087481089504
 18       0.340988696229
 19       0.000000000000
 20       0.000000000000
 21      -0.127756424108
 22       0.497976153913
 23       0.000000000000
 24       0.000000000000
 25       0.001528234842
 26      -0.005956839462
 27      -0.000000000000
 28       0.000000000000
 Sym=     1a
 Ene= 1.70545208434445E-001
 Spin= Alpha
 Occup= 0.000000
  1       0.000000000000
  2       0.000000000000
  3       0.422011923058
  4       0.108267702774
  5      -0.000000000000
  6      -0.000000000000
  7       0.752482116665
  8       0.193050256874
  9      -0.000000000000
 10       0.000000000000
 11       0.010617842112
 12       0.002724021079
 13      -0.000000000000
 14      -0.000000000000
 15      -0.000000000000
 16       0.000000000000
 17      -0.340988696229
 18      -0.087481089504
 19       0.000000000000
 20       0.000000000000
 21      -0.497976153913
 22      -0.127756424108
 23       0.000000000000
 24       0.000000000000
 25       0.005956839462
 26       0.001528234842
 27      -0.000000000000
 28      -0.000000000000
 Sym=     1a
 Ene= 4.11573297860780E-001
 Spin= Alpha
 Occup= 0.000000
  1       0.024134811067
  2       0.088271221471
  3      -0.000000000000
  4       0.000000000000
  5       0.103044197344
  6      -2.170617238996
  7       0.000000000000
  8       0.000000000000
  9       1.995235188755
 10      -0.019351734766
 11      -0.000000000000
 12       0.000000000000
 13      -0.000000000000
 14      -0.000000000000
 15      -0.095200195297
 16       0.109132599371
 17       0.000000000000
 18       0.000000000000
 19       0.066353665193
 20       2.342592240180
 21      -0.000000000000
 22      -0.000000000000
 23       0.869597024981
 24       0.066663651049
 25       0.000000000000
 26       0.000000000000
 27      -0.000000000000
 28      -0.000000000000
 Sym=     1a
 Ene= 7.33338635431715E-001
 Spin= Alpha
 Occup= 0.000000
  1      -0.000000000000
  2       0.000000000000
  3      -1.017756683828
  4      -0.238319487737
  5       0.000000000000
  6      -0.000000000000
  7       1.039331660393
  8       0.243371517799
  9      -0.000000000000
 10      -0.000000000000
 11       0.022836872722
 12       0.005347517629
 13       0.000000000000
 14       0.000000000000
 15      -0.000000000000
 16       0.000000000000
 17      -0.034270407586
 18      -0.008024811932
 19      -0.000000000000
 20       0.000000000000
 21      -0.004793433085
 22      -0.001122437745
 23       0.000000000000
 24       0.000000000000
 25      -0.102562635032
 26      -0.024016226108
 27      -0.000000000000
 28       0.000000000000
 Sym=     1a
 Ene= 7.33338635431720E-001
 Spin= Alpha
 Occup= 0.000000
  1       0.000000000000
  2      -0.000000000000
  3      -0.238319487737
  4       1.017756683828
  5      -0.000000000000
  6       0.000000000000
  7       0.243371517799
  8      -1.039331660393
  9      -0.000000000000
 10      -0.000000000000
 11       0.005347517629
 12      -0.022836872722
 13       0.000000000000
 14      -0.000000000000
 15       0.000000000000
 16       0.000000000000
 17      -0.008024811932
 18       0.034270407586
 19      -0.000000000000
 20      -0.000000000000
 21      -0.001122437745
 22       0.004793433085
 23      -0.000000000000
 24      -0.000000000000
 25      -0.024016226108
 26       0.102562635032
 27      -0.000000000000
 28      -0.000000000000
 Sym=     1a
 Ene= 7.74524857515142E-001
 Spin= Alpha
 Occup= 0.000000
  1       0.073863984063
  2      -1.252843765475
  3      -0.000000000000
  4      -0.000000000000
  5      -0.651777028681
  6       1.670123946071
  7       0.000000000000
  8       0.000000000000
  9       0.379448511040
 10       0.030249015558
 11       0.000000000000
 12       0.000000000000
 13      -0.000000000000
 14      -0.000000000000
 15       0.017941319119
 16      -0.062214926596
 17      -0.000000000000
 18      -0.000000000000
 19       0.121488037524
 20      -0.390061684518
 21       0.000000000000
 22       0.000000000000
 23      -0.391224807876
 24      -0.037030560770
 25      -0.000000000000
 26      -0.000000000000
 27       0.000000000000
 28       0.000000000000
 Sym=     1a
 Ene= 1.02042809716310E+000
 Spin= Alpha
 Occup= 0.000000
  1      -0.002891784125
  2      -1.116443665026
  3      -0.000000000000
  4      -0.000000000000
  5       0.666577073828
  6      -0.217778375170
  7       0.000000000000
  8       0.000000000000
  9      -0.015768922161
 10      -0.028837538738
 11      -0.000000000000
 12      -0.000000000000
 13       0.000000000000
 14      -0.000000000000
 15      -0.077409591428
 16       0.277827468776
 17       0.000000000000
 18       0.000000000000
 19      -0.297170128010
 20       0.607217945091
 21      -0.000000000000
 22      -0.000000000000
 23       1.534805559595
 24      -0.095227279428
 25       0.000000000000
 26       0.000000000000
 27       0.000000000000
 28      -0.000000000000
 Sym=     1a
 Ene= 1.15177182466868E+000
 Spin= Alpha
 Occup= 0.000000
  1       0.095525062094
  2      -0.169882666351
  3       0.000000000000
  4       0.000000000000
  5       0.593602110194
  6       0.506536758795
  7      -0.000000000000
  8      -0.000000000000
  9      -0.509696075217
 10       0.335748503710
 11      -0.000000000000
 12       0.000000000000
 13      -0.000000000000
 14       0.000000000000
 15      -0.015257130178
 16       0.007590001217
 17      -0.000000000000
 18      -0.000000000000
 19       0.771979783958
 20      -0.333141911183
 21       0.000000000000
 22       0.000000000000
 23      -0.657764028410
 24      -0.253700434582
 25      -0.000000000000
 26      -0.000000000000
 27       0.000000000000
 28       0.000000000000
 Sym=     1a
 Ene= 1.20678752330133E+000
 Spin= Alpha
 Occup= 0.000000
  1      -0.000000000000
  2       0.000000000000
  3       0.146676577046
  4      -0.024867897179
  5       0.000000000000
  6      -0.000000000000
  7      -0.593961399382
  8       0.100701634205
  9       0.000000000000
 10      -0.000000000000
 11       0.109296739916
 12      -0.018530430318
 13       0.000000000000
 14       0.000000000000
 15      -0.000000000000
 16      -0.000000000000
 17      -0.929209976804
 18       0.157540478692
 19      -0.000000000000
 20       0.000000000000
 21       1.293173337726
 22      -0.219247696154
 23       0.000000000000
 24       0.000000000000
 25      -0.024927020882
 26       0.004226186653
 27       0.000000000000
 28       0.000000000000
 Sym=     1a
 Ene= 1.20678752330134E+000
 Spin= Alpha
 Occup= 0.000000
  1       0.000000000000
  2       0.000000000000
  3      -0.024867897179
  4      -0.146676577046
  5       0.000000000000
  6       0.000000000000
  7       0.100701634205
  8       0.593961399382
  9      -0.000000000000
 10       0.000000000000
 11      -0.018530430318
 12      -0.109296739916
 13      -0.000000000000
 14       0.000000000000
 15       0.000000000000
 16       0.000000000000
 17       0.157540478692
 18       0.929209976804
 19       0.000000000000
 20      -0.000000000000
 21      -0.219247696154
 22      -1.293173337726
 23      -0.000000000000
 24      -0.000000000000
 25       0.004226186653
 26       0.024927020882
 27      -0.000000000000
 28       0.000000000000
 Sym=     1a
 Ene= 1.74283013652470E+000
 Spin= Alpha
 Occup= 0.000000
  1       0.000000000000
  2       0.000000000000
  3      -0.000000000000
  4      -0.000000000000
  5      -0.000000000000
  6       0.000000000000
  7       0.000000000000
  8       0.000000000000
  9      -0.000000000000
 10       0.000000000000
 11      -0.000000000000
 12      -0.000000000000
 13       0.686465340986
 14       0.121391779546
 15      -0.000000000000
 16       0.000000000000
 17      -0.000000000000
 18      -0.000000000000
 19      -0.000000000000
 20      -0.000000000000
 21      -0.000000000000
 22      -0.000000000000
 23      -0.000000000000
 24       0.000000000000
 25       0.000000000000
 26       0.000000000000
 27       0.597144641825
 28       0.105596665104
 Sym=     1a
 Ene= 1.74283013652470E+000
 Spin= Alpha
 Occup= 0.000000
  1       0.000000000000
  2       0.000000000000
  3      -0.000000000000
  4      -0.000000000000
  5      -0.000000000000
  6       0.000000000000
  7      -0.000000000000
  8       0.000000000000
  9      -0.000000000000
 10       0.000000000000
 11      -0.000000000000
 12      -0.000000000000
 13       0.121391779546
 14      -0.686465340986
 15      -0.000000000000
 16       0.000000000000
 17      -0.000000000000
 18       0.000000000000
 19       0.000000000000
 20      -0.000000000000
 21       0.000000000000
 22      -0.000000000000
 23      -0.000000000000
 24       0.000000000000
 25       0.000000000000
 26       0.000000000000
 27       0.105596665104
 28      -0.597144641825
 Sym=     1a
 Ene= 1.78180344648084E+000
 Spin= Alpha
 Occup= 0.000000
  1      -0.037495155084
  2      -0.151731026431
  3      -0.000000000000
  4      -0.000000000000
  5       0.204534150571
  6      -2.538902286272
  7       0.000000000000
  8       0.000000000000
  9       1.631143045729
 10      -0.301862182932
 11      -0.000000000000
 12      -0.000000000000
 13       0.000000000000
 14      -0.000000000000
 15       0.036110157510
 16      -1.699156750874
 17       0.000000000000
 18      -0.000000000000
 19       0.001651252567
 20       4.306847311917
 21      -0.000000000000
 22      -0.000000000000
 23       1.349315264215
 24      -0.147172387317
 25       0.000000000000
 26       0.000000000000
 27       0.000000000000
 28      -0.000000000000
 Sym=     1a
 Ene= 1.86230407505698E+000
 Spin= Alpha
 Occup= 0.000000
  1       0.000000000000
  2       0.000000000000
  3      -0.286039666839
  4       0.091043738647
  5      -0.000000000000
  6       0.000000000000
  7       0.127944841426
  8      -0.040723641000
  9      -0.000000000000
 10       0.000000000000
 11      -0.602000159379
 12       0.191610995012
 13      -0.000000000000
 14      -0.000000000000
 15      -0.000000000000
 16       0.000000000000
 17      -0.229248155379
 18       0.072967534099
 19       0.000000000000
 20      -0.000000000000
 21      -0.008695421823
 22       0.002767671074
 23      -0.000000000000
 24       0.000000000000
 25       0.538797871956
 26      -0.171494300704
 27      -0.000000000000
 28      -0.000000000000
 Sym=     1a
 Ene= 1.86230407505699E+000
 Spin= Alpha
 Occup= 0.000000
  1      -0.000000000000
  2      -0.000000000000
  3       0.091043738647
  4       0.286039666839
  5       0.000000000000
  6      -0.000000000000
  7      -0.040723641000
  8      -0.127944841426
  9       0.000000000000
 10      -0.000000000000
 11       0.191610995012
 12       0.602000159379
 13       0.000000000000
 14      -0.000000000000
 15       0.000000000000
 16      -0.000000000000
 17       0.072967534099
 18       0.229248155379
 19      -0.000000000000
 20       0.000000000000
 21       0.002767671074
 22       0.008695421823
 23       0.000000000000
 24      -0.000000000000
 25      -0.171494300704
 26      -0.538797871956
 27       0.000000000000
 28      -0.000000000000
 Sym=     1a
 Ene= 2.27369333653958E+000
 Spin= Alpha
 Occup= 0.000000
  1      -0.000000000000
  2      -0.000000000000
  3       0.000000000000
  4      -0.000000000000
  5       0.000000000000
  6      -0.000000000000
  7      -0.000000000000
  8       0.000000000000
  9       0.000000000000
 10      -0.000000000000
 11      -0.000000000000
 12       0.000000000000
 13       0.283579937308
 14      -0.681525579031
 15      -0.000000000000
 16      -0.000000000000
 17       0.000000000000
 18       0.000000000000
 19       0.000000000000
 20       0.000000000000
 21      -0.000000000000
 22      -0.000000000000
 23       0.000000000000
 24      -0.000000000000
 25      -0.000000000000
 26       0.000000000000
 27      -0.312838009838
 28       0.751841289696
 Sym=     1a
 Ene= 2.27369333653958E+000
 Spin= Alpha
 Occup= 0.000000
  1      -0.000000000000
  2       0.000000000000
  3      -0.000000000000
  4      -0.000000000000
  5      -0.000000000000
  6       0.000000000000
  7       0.000000000000
  8      -0.000000000000
  9      -0.000000000000
 10       0.000000000000
 11      -0.000000000000
 12      -0.000000000000
 13      -0.681525579031
 14      -0.283579937308
 15       0.000000000000
 16       0.000000000000
 17      -0.000000000000
 18      -0.000000000000
 19      -0.000000000000
 20      -0.000000000000
 21       0.000000000000
 22       0.000000000000
 23      -0.000000000000
 24      -0.000000000000
 25       0.000000000000
 26       0.000000000000
 27       0.751841289696
 28       0.312838009838
 Sym=     1a
 Ene= 2.84802843623143E+000
 Spin= Alpha
 Occup= 0.000000
  1       0.097446633611
  2       0.279526200626
  3       0.000000000000
  4       0.000000000000
  5       0.099803766914
  6       0.002643654008
  7       0.000000000000
  8       0.000000000000
  9       0.151320987850
 10      -1.093116651505
 11      -0.000000000000
 12      -0.000000000000
 13      -0.000000000000
 14       0.000000000000
 15      -0.017110563303
 16       0.962658215123
 17      -0.000000000000
 18      -0.000000000000
 19       0.723551140840
 20      -0.572607265154
 21      -0.000000000000
 22      -0.000000000000
 23      -0.628534230282
 24      -0.312865096786
 25      -0.000000000000
 26      -0.000000000000
 27       0.000000000000
 28      -0.000000000000
 Sym=     1a
 Ene= 2.97548638998242E+000
 Spin= Alpha
 Occup= 0.000000
  1      -0.000000000000
  2      -0.000000000000
  3       0.167927738830
  4      -0.379052672566
  5      -0.000000000000
  6      -0.000000000000
  7       0.122511286039
  8      -0.276536983801
  9       0.000000000000
 10       0.000000000000
 11      -0.443535143523
 12       1.001163850004
 13      -0.000000000000
 14       0.000000000000
 15       0.000000000000
 16      -0.000000000000
 17      -0.044930650935
 18       0.101419118937
 19      -0.000000000000
 20       0.000000000000
 21      -0.224896464296
 22       0.507644576388
 23       0.000000000000
 24       0.000000000000
 25      -0.456934776017
 26       1.031409993636
 27       0.000000000000
 28      -0.000000000000
 Sym=     1a
 Ene= 2.97548638998243E+000
 Spin= Alpha
 Occup= 0.000000
  1      -0.000000000000
  2      -0.000000000000
  3       0.379052672566
  4       0.167927738830
  5      -0.000000000000
  6      -0.000000000000
  7       0.276536983801
  8       0.122511286039
  9       0.000000000000
 10       0.000000000000
 11      -1.001163850004
 12      -0.443535143523
 13      -0.000000000000
 14      -0.000000000000
 15       0.000000000000
 16      -0.000000000000
 17      -0.101419118937
 18      -0.044930650935
 19      -0.000000000000
 20       0.000000000000
 21      -0.507644576388
 22      -0.224896464296
 23       0.000000000000
 24       0.000000000000
 25      -1.031409993636
 26      -0.456934776017
 27      -0.000000000000
 28       0.000000000000
 Sym=     1a
 Ene= 3.39232276837429E+000
 Spin= Alpha
 Occup= 0.000000
  1       0.138037808056
  2       1.931007845008
  3       0.000000000000
  4       0.000000000000
  5      -1.638848409824
  6       1.523339261771
  7       0.000000000000
  8       0.000000000000
  9      -0.812551013525
 10       0.747772046038
 11      -0.000000000000
 12      -0.000000000000
 13      -0.000000000000
 14      -0.000000000000
 15       0.067869304771
 16       0.386715976500
 17       0.000000000000
 18      -0.000000000000
 19      -0.611968866237
 20      -3.362390787724
 21      -0.000000000000
 22      -0.000000000000
 23      -1.919204849445
 24      -1.533408082315
 25      -0.000000000000
 26      -0.000000000000
 27      -0.000000000000
 28       0.000000000000
