[Molden Format]
[Title]
 Molden file created by orca_2mkl for BaseName=COBH3

[Atoms] AU
C    1   6          0.0000000000         0.0000000000        -0.1882545175 
O    2   8          0.0000000000         0.0000000000        -2.2824490191 
B    3   5          0.0000000000         0.0000000000         2.8865566696 
H    4   1          2.2152692550         0.0000000000         3.3959701435 
H    5   1         -1.1076440761        -1.9184877657         3.3959701435 
H    6   1         -1.1076440761         1.9184877657         3.3959701435 
[GTO]
  1 0
s   6 1.0 
     3047.5249000000         0.5363343823
      457.3695100000         0.9894506076
      103.9486900000         1.5972822308
       29.2101550000         2.0791870615
        9.2866630000         1.7741742532
        3.1639270000         0.6125798260
s   3 1.0 
        7.8682724000        -0.3995563516
        1.8812885000        -0.1841552393
        0.5442493000         0.5163903794
p   3 1.0 
        7.8682724000         1.2960827175
        1.8812885000         0.9937536282
        0.5442493000         0.4959527138
s   1 1.0 
        0.1687144000         0.1876178721
p   1 1.0 
        0.1687144000         0.1541275509
d   1 1.0 
        0.8000000000         1.9292013661

  2 0
s   6 1.0 
     5484.6717000000         0.8317352088
      825.2349500000         1.5308074829
      188.0469600000         2.4771490916
       52.9645000000         3.2562802462
       16.8975700000         2.7928936336
        5.7996353000         0.9549376963
s   3 1.0 
       15.5396160000        -0.6179336976
        3.5999336000        -0.2757210088
        1.0137618000         0.8142076427
p   3 1.0 
       15.5396160000         3.1169455889
        3.5999336000         2.4014372483
        1.0137618000         1.0543605133
s   1 1.0 
        0.2700058000         0.2669561389
p   1 1.0 
        0.2700058000         0.2774319373
d   1 1.0 
        0.8000000000         1.9292013661

  3 0
s   6 1.0 
     2068.8823000000         0.4080312436
      310.6495700000         0.7515774990
       70.6830330000         1.2083802892
       19.8610800000         1.5594497266
        6.2993048000         1.3236393043
        2.1270270000         0.4562073983
s   3 1.0 
        4.7279710000        -0.2979704255
        1.1903377000        -0.1062266889
        0.3594117000         0.3741498096
p   3 1.0 
        4.7279710000         0.7413246601
        1.1903377000         0.5455848787
        0.3594117000         0.2949076838
s   1 1.0 
        0.1267512000         0.1513993993
p   1 1.0 
        0.1267512000         0.1078028363
d   1 1.0 
        0.6000000000         1.1660972515

  4 0
s   3 1.0 
       18.7311370000         0.2149354183
        2.8253937000         0.3645711272
        0.6401217000         0.4150514277
s   1 1.0 
        0.1612778000         0.1813806839

  5 0
s   3 1.0 
       18.7311370000         0.2149354183
        2.8253937000         0.3645711272
        0.6401217000         0.4150514277
s   1 1.0 
        0.1612778000         0.1813806839

  6 0
s   3 1.0 
       18.7311370000         0.2149354183
        2.8253937000         0.3645711272
        0.6401217000         0.4150514277
s   1 1.0 
        0.1612778000         0.1813806839

[5D]
[9G]
[MO]
 Sym=     1a
 Ene= -2.07306046232349E+001
 Spin= Alpha
 Occup= 2.000000
  1      -0.000245324758
  2      -0.000613922473
  3       0.000000000040
  4       0.000000000000
  5      -0.000953859853
  6      -0.003627689791
  7      -0.000000000222
  8      -0.000000000000
  9       0.007577445399
 10       0.001303861112
 11      -0.000000000057
 12      -0.000000000000
 13      -0.000000000081
 14      -0.000000000000
 15      -0.995857125211
 16      -0.023642863912
 17       0.000000000006
 18       0.000000000000
 19      -0.002625205173
 20       0.014016972009
 21       0.000000000052
 22       0.000000000000
 23       0.003540234686
 24      -0.000534626999
 25      -0.000000000082
 26      -0.000000000000
 27       0.000000000370
 28       0.000000000000
 29      -0.000023575980
 30      -0.000805568987
 31      -0.000000000360
 32      -0.000000000000
 33       0.000894532557
 34      -0.003423244650
 35       0.000000000787
 36       0.000000000000
 37       0.001215484192
 38      -0.000305669774
 39      -0.000000000023
 40      -0.000000000000
 41      -0.000000000041
 42      -0.000000000000
 43      -0.000018049874
 44       0.000310866824
 45      -0.000018049785
 46       0.000310866085
 47      -0.000018049785
 48       0.000310866085
 Sym=     1a
 Ene= -1.14407360542041E+001
 Spin= Alpha
 Occup= 2.000000
  1      -0.996383905315
  2      -0.025217238558
  3       0.000000000658
  4      -0.000000000000
  5       0.003305487304
  6       0.006571995661
  7      -0.000000000833
  8      -0.000000000000
  9       0.007580855080
 10      -0.002473758578
 11      -0.000000000459
 12      -0.000000000000
 13      -0.000000000348
 14       0.000000000000
 15       0.000719188709
 16      -0.000985451307
 17      -0.000000000183
 18       0.000000000000
 19       0.000150900648
 20       0.008674527553
 21       0.000000000140
 22       0.000000000000
 23       0.004213808253
 24       0.000641499770
 25      -0.000000000170
 26      -0.000000000000
 27      -0.000000000087
 28      -0.000000000000
 29      -0.000013096911
 30       0.000921527641
 31      -0.000000002282
 32      -0.000000000000
 33       0.000121115248
 34      -0.008664287199
 35       0.000000000935
 36       0.000000000000
 37       0.003228026100
 38       0.000555291409
 39      -0.000000000666
 40      -0.000000000000
 41      -0.000000001752
 42      -0.000000000000
 43       0.000216775344
 44       0.000884489498
 45       0.000216774555
 46       0.000884483966
 47       0.000216774555
 48       0.000884483966
 Sym=     1a
 Ene= -7.55519670539920E+000
 Spin= Alpha
 Occup= 2.000000
  1       0.000213526029
  2      -0.000054847439
  3      -0.000000000002
  4       0.000000000000
  5       0.000264220958
  6      -0.004807202700
  7       0.000000003148
  8      -0.000000000000
  9       0.002320808050
 10       0.000335140637
 11      -0.000000000108
 12       0.000000000000
 13       0.000000000347
 14       0.000000000000
 15      -0.000059660157
 16      -0.000748145464
 17       0.000000000113
 18       0.000000000000
 19      -0.000004461434
 20       0.003970625077
 21      -0.000000001086
 22       0.000000000000
 23       0.001099479501
 24       0.000006066882
 25      -0.000000000265
 26       0.000000000000
 27      -0.000000000042
 28      -0.000000000000
 29      -0.996193246368
 30      -0.026032819089
 31       0.000000001038
 32      -0.000000000000
 33       0.002038516899
 34       0.015711217518
 35      -0.000000013961
 36       0.000000000000
 37      -0.000923931233
 38       0.000057917545
 39      -0.000000004323
 40       0.000000000000
 41      -0.000000010429
 42       0.000000000000
 43       0.000138365863
 44      -0.003254396390
 45       0.000138369836
 46      -0.003254399283
 47       0.000138369836
 48      -0.003254399283
 Sym=     1a
 Ene= -1.59069967899093E+000
 Spin= Alpha
 Occup= 2.000000
  1      -0.119865915116
  2       0.215112257924
  3      -0.000000005367
  4       0.000000000000
  5      -0.220967243657
  6       0.046489565183
  7       0.000000001633
  8       0.000000000000
  9       0.060808460664
 10       0.039902688588
 11       0.000000001799
 12      -0.000000000000
 13       0.000000004924
 14       0.000000000000
 15      -0.202113486824
 16       0.435392113013
 17       0.000000009005
 18       0.000000000000
 19       0.166939803592
 20       0.393046518778
 21       0.000000005189
 22      -0.000000000000
 23       0.051766327749
 24       0.016345481168
 25       0.000000000951
 26      -0.000000000000
 27      -0.000000001041
 28      -0.000000000000
 29      -0.003275029962
 30       0.002673152424
 31      -0.000000002768
 32       0.000000000000
 33      -0.003062294662
 34      -0.036249076240
 35       0.000000002860
 36      -0.000000000000
 37       0.015887977820
 38       0.001951774791
 39      -0.000000001435
 40      -0.000000000000
 41      -0.000000002254
 42       0.000000000000
 43       0.001061434449
 44       0.002224632118
 45       0.001061429684
 46       0.002224625005
 47       0.001061429684
 48       0.002224625005
 Sym=     1a
 Ene= -8.82930263860530E-001
 Spin= Alpha
 Occup= 2.000000
  1       0.154837574927
  2      -0.340644996264
  3      -0.000000077445
  4       0.000000000000
  5      -0.087690542126
  6      -0.280311203238
  7      -0.000000052401
  8       0.000000000000
  9      -0.080807564696
 10      -0.016541829908
 11      -0.000000005473
 12      -0.000000000000
 13      -0.000000002980
 14      -0.000000000000
 15      -0.092381126399
 16       0.227186308531
 17      -0.000000058066
 18       0.000000000000
 19      -0.313814533524
 20       0.299302227279
 21      -0.000000015490
 22       0.000000000000
 23      -0.151449539264
 24      -0.012992831072
 25      -0.000000003866
 26       0.000000000000
 27      -0.000000003960
 28       0.000000000000
 29       0.097714988405
 30      -0.158526829752
 31      -0.000000319830
 32      -0.000000000000
 33       0.081366745949
 34      -0.054629335706
 35       0.000000019797
 36      -0.000000000000
 37      -0.005793188905
 38      -0.009594206279
 39      -0.000000001263
 40      -0.000000000000
 41      -0.000000064270
 42       0.000000000000
 43      -0.051559632928
 44      -0.029999490034
 45      -0.051559164571
 46      -0.029999362807
 47      -0.051559164571
 48      -0.029999362807
 Sym=     1a
 Ene= -7.95282966546281E-001
 Spin= Alpha
 Occup= 2.000000
  1       0.006593608813
  2      -0.012626078100
  3      -0.000000149271
  4       0.000000000000
  5      -0.362718246446
  6      -0.126332202174
  7      -0.000000085432
  8       0.000000000000
  9      -0.040093936345
 10       0.011857052058
 11      -0.000000001974
 12      -0.000000000000
 13      -0.000000000699
 14      -0.000000000000
 15       0.057384779054
 16      -0.144690709576
 17      -0.000000094313
 18       0.000000000000
 19       0.439709128685
 20      -0.240629745717
 21      -0.000000044952
 22       0.000000000000
 23       0.213986161289
 24       0.023319349694
 25      -0.000000010266
 26       0.000000000000
 27       0.000000001153
 28       0.000000000000
 29       0.115309709989
 30      -0.185540776418
 31      -0.000000547827
 32       0.000000000000
 33       0.059993634177
 34      -0.140865627608
 35       0.000000017411
 36      -0.000000000000
 37       0.015897948085
 38      -0.002038576887
 39      -0.000000012549
 40      -0.000000000000
 41      -0.000000105304
 42       0.000000000000
 43      -0.070592964475
 44      -0.041627679045
 45      -0.070592236540
 46      -0.041627408322
 47      -0.070592236540
 48      -0.041627408322
 Sym=     1a
 Ene= -7.02051976546058E-001
 Spin= Alpha
 Occup= 2.000000
  1      -0.000000000000
  2       0.000000000000
  3       0.000000011066
  4      -0.309382427826
  5       0.000000000000
  6       0.000000000000
  7       0.000000004221
  8      -0.118001159681
  9      -0.000000000000
 10      -0.000000000000
 11      -0.000000001558
 12       0.043564375263
 13       0.000000000006
 14       0.000168008411
 15       0.000000000000
 16      -0.000000000000
 17       0.000000019522
 18      -0.545782228409
 19      -0.000000000000
 20      -0.000000000000
 21       0.000000012426
 22      -0.347395161007
 23      -0.000000000000
 24      -0.000000000000
 25       0.000000001554
 26      -0.043435650353
 27      -0.000000000001
 28      -0.000039371407
 29       0.000000000000
 30      -0.000000000000
 31       0.000000001634
 32      -0.045691681386
 33      -0.000000000000
 34      -0.000000000000
 35       0.000000000243
 36      -0.006783405536
 37      -0.000000000000
 38       0.000000000000
 39      -0.000000000158
 40       0.004416594984
 41       0.000000000136
 42       0.003808626102
 43       0.000000000874
 44       0.000000000798
 45       0.021151767538
 46       0.019320986437
 47      -0.021151768411
 48      -0.019320987235
 Sym=     1a
 Ene= -7.02051913503798E-001
 Spin= Alpha
 Occup= 2.000000
  1       0.000000064124
  2      -0.000000156368
  3       0.309382623485
  4       0.000000011066
  5      -0.000000232288
  6      -0.000000149553
  7       0.118001310895
  8       0.000000004221
  9      -0.000000045163
 10       0.000000007755
 11      -0.043564370697
 12      -0.000000001558
 13       0.000168012180
 14      -0.000000000006
 15       0.000000001101
 16      -0.000000002528
 17       0.545781971500
 18       0.000000019522
 19       0.000000152225
 20      -0.000000034035
 21       0.347395027005
 22       0.000000012426
 23       0.000000066176
 24       0.000000004355
 25       0.043435660418
 26       0.000000001554
 27      -0.000039366829
 28       0.000000000001
 29       0.000000005858
 30       0.000000032700
 31       0.045692063546
 32       0.000000001634
 33       0.000000141158
 34      -0.000000149321
 35       0.006783398051
 36       0.000000000243
 37       0.000000032838
 38      -0.000000019210
 39      -0.004416586688
 40      -0.000000000158
 41       0.003808654744
 42      -0.000000000136
 43       0.024424191819
 44       0.022310079053
 45      -0.012212089885
 46      -0.011155053912
 47      -0.012212088372
 48      -0.011155052530
 Sym=     1a
 Ene= -5.55025191073189E-001
 Spin= Alpha
 Occup= 2.000000
  1      -0.089313671831
  2       0.205617896277
  3       0.000000058234
  4       0.000000000000
  5       0.283744952070
  6       0.346686284339
  7      -0.000000067779
  8       0.000000000000
  9       0.064854204440
 10      -0.010129224382
 11      -0.000000131845
 12      -0.000000000000
 13      -0.000000015202
 14       0.000000000000
 15       0.010566388081
 16      -0.022601011047
 17       0.000000835305
 18       0.000000000000
 19      -0.128040788961
 20      -0.036443259553
 21       0.000000648458
 22       0.000000000000
 23      -0.075978231904
 24      -0.007100438318
 25       0.000000049959
 26       0.000000000000
 27       0.000000001745
 28      -0.000000000000
 29       0.111000618726
 30      -0.184047203974
 31      -0.000002813663
 32      -0.000000000000
 33      -0.238083266415
 34      -0.182679245669
 35      -0.000000555363
 36      -0.000000000000
 37      -0.049287678265
 38       0.044744635485
 39      -0.000000104697
 40      -0.000000000000
 41      -0.000000370524
 42       0.000000000000
 43      -0.148453502473
 44      -0.147631555380
 45      -0.148450403576
 46      -0.147628865638
 47      -0.148450403576
 48      -0.147628865638
 Sym=     1a
 Ene= -4.67584377015937E-001
 Spin= Alpha
 Occup= 2.000000
  1       0.000000481868
  2      -0.000001093412
  3      -0.028772565920
  4       0.000000000092
  5      -0.000001398072
  6      -0.000002266097
  7      -0.039819806761
  8       0.000000000128
  9      -0.000000721453
 10       0.000000044385
 11      -0.020823116631
 12       0.000000000067
 13      -0.002401871345
 14      -0.000000000008
 15      -0.000000065300
 16       0.000000172867
 17       0.125263701765
 18      -0.000000000403
 19       0.000000538447
 20       0.000000097399
 21       0.108138240601
 22      -0.000000000347
 23       0.000000323593
 24       0.000000031540
 25       0.006306303747
 26      -0.000000000020
 27       0.000023849543
 28       0.000000000000
 29      -0.000000557901
 30       0.000000448699
 31      -0.377152078586
 32       0.000000001208
 33       0.000001035885
 34       0.000002973878
 35      -0.153178549778
 36       0.000000000497
 37       0.000000152083
 38      -0.000000261618
 39      -0.003086936612
 40       0.000000000010
 41      -0.036952433289
 42      -0.000000000118
 43      -0.260005628166
 44      -0.293716206408
 45       0.130004448008
 46       0.146860196822
 47       0.130004449453
 48       0.146860198453
 Sym=     1a
 Ene= -4.67582945663616E-001
 Spin= Alpha
 Occup= 2.000000
  1       0.000000000000
  2      -0.000000000000
  3      -0.000000000092
  4      -0.028773180251
  5      -0.000000000000
  6      -0.000000000000
  7      -0.000000000128
  8      -0.039820342449
  9       0.000000000000
 10       0.000000000000
 11      -0.000000000067
 12      -0.020823108138
 13      -0.000000000008
 14       0.002401887626
 15      -0.000000000000
 16      -0.000000000000
 17       0.000000000403
 18       0.125263549583
 19       0.000000000000
 20       0.000000000000
 21       0.000000000347
 22       0.108138298565
 23       0.000000000000
 24       0.000000000000
 25       0.000000000020
 26       0.006306267047
 27       0.000000000000
 28      -0.000023847629
 29      -0.000000000000
 30       0.000000000000
 31      -0.000000001208
 32      -0.377150860870
 33      -0.000000000000
 34      -0.000000000000
 35      -0.000000000497
 36      -0.153179425819
 37       0.000000000000
 38      -0.000000000000
 39      -0.000000000010
 40      -0.003086824438
 41      -0.000000000118
 42       0.036952427708
 43      -0.000000000834
 44      -0.000000000942
 45       0.225172146743
 46       0.254367840203
 47      -0.225172145909
 48      -0.254367839261
 Sym=     1a
 Ene= 1.16021862975867E-001
 Spin= Alpha
 Occup= 0.000000
  1       0.000000000000
  2       0.000000000000
  3       0.000000000744
  4      -0.477721708762
  5       0.000000000000
  6      -0.000000000000
  7       0.000000001017
  8      -0.652807419501
  9      -0.000000000000
 10       0.000000000000
 11       0.000000000037
 12      -0.023699138624
 13      -0.000000000004
 14      -0.002635175493
 15       0.000000000000
 16       0.000000000000
 17      -0.000000000546
 18       0.350568813743
 19       0.000000000000
 20      -0.000000000000
 21      -0.000000000733
 22       0.470390343791
 23      -0.000000000000
 24      -0.000000000000
 25       0.000000000017
 26      -0.010987421881
 27      -0.000000000001
 28      -0.000345328873
 29      -0.000000000000
 30      -0.000000000000
 31      -0.000000000045
 32       0.028525379460
 33      -0.000000000000
 34       0.000000000000
 35       0.000000000352
 36      -0.225299461925
 37       0.000000000000
 38       0.000000000000
 39      -0.000000000059
 40       0.037536719709
 41      -0.000000000018
 42      -0.011870015799
 43      -0.000000000163
 44      -0.000000000682
 45      -0.090691867788
 46      -0.378694880316
 47       0.090691867952
 48       0.378694880999
 Sym=     1a
 Ene= 1.16021995218967E-001
 Spin= Alpha
 Occup= 0.000000
  1      -0.000000033941
  2       0.000000137203
  3      -0.477721936103
  4      -0.000000000744
  5       0.000000158139
  6      -0.000000302701
  7      -0.652807721947
  8      -0.000000001017
  9       0.000001031077
 10       0.000000013633
 11      -0.023699131770
 12      -0.000000000037
 13       0.002635143148
 14      -0.000000000004
 15      -0.000000031915
 16      -0.000000017915
 17       0.350569156846
 18       0.000000000546
 19       0.000000018578
 20       0.000000993203
 21       0.470390777646
 22       0.000000000733
 23       0.000000289851
 24       0.000000015984
 25      -0.010987423939
 26      -0.000000000017
 27       0.000345329866
 28      -0.000000000001
 29      -0.000000276949
 30       0.000000714360
 31       0.028526403016
 32       0.000000000045
 33       0.000000220245
 34      -0.000001372983
 35      -0.225300383155
 36      -0.000000000352
 37       0.000000365329
 38       0.000000027136
 39       0.037536770100
 40       0.000000000059
 41       0.011869909480
 42      -0.000000000018
 43       0.104721558372
 44       0.437278417595
 45      -0.052360957197
 46      -0.218640123952
 47      -0.052360956914
 48      -0.218640122770
 Sym=     1a
 Ene= 2.79266624388478E-001
 Spin= Alpha
 Occup= 0.000000
  1      -0.063374698804
  2       0.109175405440
  3       0.000001330594
  4       0.000000000000
  5       0.165359030447
  6       0.457805100622
  7       0.000003709220
  8       0.000000000000
  9       1.656448836649
 10      -0.005792722063
 11      -0.000000050483
 12       0.000000000000
 13       0.000000040187
 14      -0.000000000000
 15      -0.033519746482
 16      -0.020879412584
 17      -0.000000885868
 18      -0.000000000000
 19      -0.018483483321
 20       1.215143097050
 21      -0.000001709200
 22      -0.000000000000
 23       0.327336943326
 24       0.024559159974
 25       0.000000037144
 26       0.000000000000
 27       0.000000004159
 28       0.000000000000
 29      -0.044929187958
 30       0.228286914160
 31      -0.000002108408
 32      -0.000000000000
 33       0.091597883541
 34      -0.307311508061
 35      -0.000008842969
 36      -0.000000000000
 37       1.727413111660
 38      -0.002010934371
 39      -0.000000024768
 40      -0.000000000000
 41      -0.000000077832
 42      -0.000000000000
 43      -0.020415891117
 44      -0.584763874697
 45      -0.020416032629
 46      -0.584772403598
 47      -0.020416032629
 48      -0.584772403598
 Sym=     1a
 Ene= 3.03976029844365E-001
 Spin= Alpha
 Occup= 0.000000
  1      -0.066041598453
  2       0.026347224712
  3      -0.000000741514
  4      -0.000000000000
  5       0.007952931190
  6       2.109382758046
  7      -0.000002248902
  8       0.000000000000
  9      -1.339252086632
 10      -0.023059166380
 11       0.000000014369
 12       0.000000000000
 13      -0.000000040334
 14      -0.000000000000
 15       0.083399003225
 16      -0.107156752000
 17       0.000000428043
 18      -0.000000000000
 19      -0.128545944866
 20      -1.797495951987
 21       0.000000985060
 22      -0.000000000000
 23      -0.687197192181
 24      -0.044050648639
 25      -0.000000019833
 26      -0.000000000000
 27      -0.000000001769
 28      -0.000000000000
 29       0.088085380893
 30      -0.274352981129
 31       0.000000501218
 32      -0.000000000000
 33       0.282974406367
 34       0.075792840478
 35       0.000007204389
 36      -0.000000000000
 37       0.444735143699
 38       0.014258291837
 39       0.000000178757
 40      -0.000000000000
 41      -0.000000020898
 42       0.000000000000
 43      -0.047039268482
 44       0.086476959039
 45      -0.047039098808
 46       0.086485494890
 47      -0.047039098808
 48       0.086485494890
 Sym=     1a
 Ene= 3.46034795452610E-001
 Spin= Alpha
 Occup= 0.000000
  1      -0.000000000000
  2       0.000000000000
  3      -0.000000001319
  4      -0.159881434279
  5       0.000000000000
  6      -0.000000000000
  7      -0.000000005098
  8      -0.618279584180
  9       0.000000000000
 10      -0.000000000000
 11       0.000000000084
 12       0.010195299020
 13      -0.000000000138
 14       0.016771371596
 15      -0.000000000000
 16      -0.000000000000
 17       0.000000000838
 18       0.101581542458
 19      -0.000000000000
 20       0.000000000000
 21       0.000000002020
 22       0.244989737532
 23       0.000000000000
 24       0.000000000000
 25      -0.000000000033
 26      -0.004011117277
 27      -0.000000000022
 28       0.002637150063
 29       0.000000000000
 30      -0.000000000000
 31       0.000000001980
 32       0.240245565642
 33       0.000000000000
 34       0.000000000000
 35       0.000000018159
 36       2.202299273343
 37       0.000000000000
 38       0.000000000000
 39       0.000000000079
 40       0.009629126506
 41      -0.000000000161
 42       0.019480096225
 43      -0.000000000324
 44      -0.000000016755
 45       0.033976972511
 46       1.759985276915
 47      -0.033976972187
 48      -1.759985260160
 Sym=     1a
 Ene= 3.46035954258391E-001
 Spin= Alpha
 Occup= 0.000000
  1      -0.000000506852
  2       0.000000705136
  3      -0.159880825562
  4       0.000000001319
  5       0.000001627970
  6      -0.000000410382
  7      -0.618281428363
  8       0.000000005098
  9       0.000026193326
 10      -0.000000101624
 11       0.010195302844
 12      -0.000000000084
 13      -0.016771446636
 14      -0.000000000138
 15      -0.000000701883
 16       0.000000298558
 17       0.101581028527
 18      -0.000000000838
 19       0.000000049472
 20       0.000021222258
 21       0.244989838764
 22      -0.000000002020
 23       0.000006350872
 24       0.000000483180
 25      -0.004011079414
 26       0.000000000033
 27      -0.002637164991
 28      -0.000000000022
 29       0.000000931468
 30       0.000001203096
 31       0.240244029660
 32      -0.000000001980
 33      -0.000001935881
 34      -0.000015267557
 35       2.202320839714
 36      -0.000000018158
 37       0.000017176534
 38      -0.000000070190
 39       0.009629145423
 40      -0.000000000079
 41      -0.019480025760
 42      -0.000000000161
 43      -0.039232704989
 44      -2.032277267710
 45       0.019616265585
 46       1.016139894154
 47       0.019616266146
 48       1.016139923174
 Sym=     1a
 Ene= 3.95687994680952E-001
 Spin= Alpha
 Occup= 0.000000
  1       0.060275396782
  2      -0.016749402325
  3      -0.000001006586
  4       0.000000000000
  5      -0.104662447272
  6      -0.847831018017
  7      -0.000003654419
  8       0.000000000000
  9      -2.051789664025
 10       0.018700682769
 11       0.000000035532
 12      -0.000000000000
 13      -0.000000199279
 14      -0.000000000000
 15       0.036320316810
 16      -0.000381964028
 17       0.000000401530
 18      -0.000000000000
 19       0.040905224798
 20      -1.327950377997
 21       0.000001357460
 22      -0.000000000000
 23      -0.332312105713
 24      -0.029239123314
 25      -0.000000031522
 26       0.000000000000
 27      -0.000000033580
 28       0.000000000000
 29      -0.178867771225
 30       0.065621915419
 31       0.000000416688
 32      -0.000000000000
 33       0.179479692754
 34       4.663583747966
 35       0.000018875291
 36      -0.000000000000
 37      -1.060450683120
 38       0.004236033100
 39       0.000000137226
 40      -0.000000000000
 41      -0.000000202077
 42      -0.000000000000
 43       0.034072183518
 44      -1.450508182238
 45       0.034072513511
 46      -1.450474596523
 47       0.034072513511
 48      -1.450474596523
 Sym=     1a
 Ene= 6.01630507727531E-001
 Spin= Alpha
 Occup= 0.000000
  1      -0.000000567328
  2       0.000001786374
  3       0.304203621127
  4       0.000000052274
  5       0.000000968874
  6       0.000005510566
  7      -0.031882562880
  8      -0.000000005480
  9       0.000003983450
 10      -0.000000507469
 11       0.018838191753
 12       0.000000003237
 13       0.004760455149
 14      -0.000000000818
 15       0.000000128761
 16      -0.000000842295
 17       0.011773603531
 18       0.000000002023
 19      -0.000000859129
 20       0.000001631282
 21      -0.064841950981
 22      -0.000000011142
 23       0.000000107417
 24       0.000000173897
 25       0.027550951120
 26       0.000000004734
 27       0.000165447307
 28      -0.000000000028
 29       0.000000689157
 30       0.000008749233
 31       0.977227664340
 32       0.000000167927
 33       0.000004268448
 34      -0.000023712077
 35      -1.239570821229
 36      -0.000000213002
 37      -0.000000312826
 38       0.000000169496
 39      -0.016366690151
 40      -0.000000002812
 41       0.066095717636
 42      -0.000000011358
 43       0.249531471581
 44      -0.007789373054
 45      -0.124763154871
 46       0.003898921769
 47      -0.124763080603
 48       0.003898919448
 Sym=     1a
 Ene= 6.01631734160632E-001
 Spin= Alpha
 Occup= 0.000000
  1       0.000000000000
  2      -0.000000000000
  3      -0.000000052274
  4       0.304206013249
  5      -0.000000000000
  6      -0.000000000001
  7       0.000000005480
  8      -0.031886866457
  9      -0.000000000001
 10       0.000000000000
 11      -0.000000003237
 12       0.018838257066
 13      -0.000000000818
 14      -0.004760502660
 15      -0.000000000000
 16       0.000000000000
 17      -0.000000002023
 18       0.011774149191
 19       0.000000000000
 20      -0.000000000000
 21       0.000000011142
 22      -0.064841441147
 23       0.000000000000
 24      -0.000000000000
 25      -0.000000004734
 26       0.027551190554
 27      -0.000000000028
 28      -0.000165454506
 29      -0.000000000000
 30      -0.000000000002
 31      -0.000000167927
 32       0.977229216495
 33      -0.000000000001
 34       0.000000000004
 35       0.000000213003
 36      -1.239569391373
 37       0.000000000000
 38      -0.000000000000
 39       0.000000002812
 40      -0.016366752282
 41      -0.000000011358
 42      -0.066096291272
 43      -0.000000042880
 44       0.000000001339
 45      -0.216098591219
 46       0.006746751237
 47       0.216098634097
 48      -0.006746752578
 Sym=     1a
 Ene= 7.27018011423869E-001
 Spin= Alpha
 Occup= 0.000000
  1      -0.000002691401
  2       0.000010412133
  3      -0.973659237778