 x3lyp/6-31+G* out=wfn density                           
GAUSSIAN             50 MOL ORBITALS    492 PRIMITIVES       25 NUCLEI
  O    1    (CENTRE  1)   2.64128308  3.59978516 -0.71106468  CHARGE =  8.0
  N    2    (CENTRE  2)   2.78838860 -0.64940567  0.03121385  CHARGE =  7.0
  C    3    (CENTRE  3)   7.93127323 -0.63507569  0.05718196  CHARGE =  6.0
  C    4    (CENTRE  4)   6.61518951 -2.92425618  0.46950869  CHARGE =  6.0
  C    5    (CENTRE  5)   4.03469387 -2.84672425  0.44154847  CHARGE =  6.0
  C    6    (CENTRE  6)   3.93545999  1.67544080 -0.37193559  CHARGE =  6.0
  C    7    (CENTRE  7)   6.65382908  1.57786883 -0.34795750  CHARGE =  6.0
  H    8    (CENTRE  8)   9.97607501 -0.62729961  0.06436410  CHARGE =  1.0
  H    9    (CENTRE  9)   7.58544331 -4.68456021  0.79720844  CHARGE =  1.0
  H   10    (CENTRE 10)   2.86175443 -4.49124885  0.73980121  CHARGE =  1.0
  H   11    (CENTRE 11)   7.63625562  3.33850276 -0.66050307  CHARGE =  1.0
  H   12    (CENTRE 12)   0.82733742 -0.65323790  0.01101745  CHARGE =  1.0
  N   13    (CENTRE 13)  -2.68619080 -0.67538195 -0.02895370  CHARGE =  7.0
  C   14    (CENTRE 14)  -3.98616809  1.48183761  0.31426461  CHARGE =  6.0
  C   15    (CENTRE 15)  -6.64773181  1.50921674  0.29150782  CHARGE =  6.0
  C   16    (CENTRE 16)  -7.95057125 -0.71891860 -0.09207261  CHARGE =  6.0
  C   17    (CENTRE 17)  -6.60115975 -2.95835339 -0.45084289  CHARGE =  6.0
  C   18    (CENTRE 18)  -3.99021059 -2.82067422 -0.40235611  CHARGE =  6.0
  H   19    (CENTRE 19)  -7.64258719  3.27128433  0.57714800  CHARGE =  1.0
  H   20    (CENTRE 20)  -9.99410006 -0.71558259 -0.11572090  CHARGE =  1.0
  H   21    (CENTRE 21)  -7.53998057 -4.74185248 -0.76226784  CHARGE =  1.0
  H   22    (CENTRE 22)  -2.85991183 -4.50558766 -0.68143980  CHARGE =  1.0
  N   23    (CENTRE 23)  -2.62181209  3.62125403  0.78232530  CHARGE =  7.0
  H   24    (CENTRE 24)  -3.53922835  5.26588858  0.54104447  CHARGE =  1.0
  H   25    (CENTRE 25)  -0.77164757  3.62797760  0.23268610  CHARGE =  1.0
CENTRE ASSIGNMENTS    1  1  1  1  1  1  1  1  1  1  1  1  1  1  1  1  1  1  1  1
CENTRE ASSIGNMENTS    1  1  1  1  1  1  1  1  1  1  1  1  2  2  2  2  2  2  2  2
CENTRE ASSIGNMENTS    2  2  2  2  2  2  2  2  2  2  2  2  2  2  2  2  2  2  2  2
CENTRE ASSIGNMENTS    2  2  2  2  3  3  3  3  3  3  3  3  3  3  3  3  3  3  3  3
CENTRE ASSIGNMENTS    3  3  3  3  3  3  3  3  3  3  3  3  3  3  3  3  4  4  4  4
CENTRE ASSIGNMENTS    4  4  4  4  4  4  4  4  4  4  4  4  4  4  4  4  4  4  4  4
CENTRE ASSIGNMENTS    4  4  4  4  4  4  4  4  5  5  5  5  5  5  5  5  5  5  5  5
CENTRE ASSIGNMENTS    5  5  5  5  5  5  5  5  5  5  5  5  5  5  5  5  5  5  5  5
CENTRE ASSIGNMENTS    6  6  6  6  6  6  6  6  6  6  6  6  6  6  6  6  6  6  6  6
CENTRE ASSIGNMENTS    6  6  6  6  6  6  6  6  6  6  6  6  7  7  7  7  7  7  7  7
CENTRE ASSIGNMENTS    7  7  7  7  7  7  7  7  7  7  7  7  7  7  7  7  7  7  7  7
CENTRE ASSIGNMENTS    7  7  7  7  8  8  8  8  9  9  9  9 10 10 10 10 11 11 11 11
CENTRE ASSIGNMENTS   12 12 12 12 13 13 13 13 13 13 13 13 13 13 13 13 13 13 13 13
CENTRE ASSIGNMENTS   13 13 13 13 13 13 13 13 13 13 13 13 13 13 13 13 14 14 14 14
CENTRE ASSIGNMENTS   14 14 14 14 14 14 14 14 14 14 14 14 14 14 14 14 14 14 14 14
CENTRE ASSIGNMENTS   14 14 14 14 14 14 14 14 15 15 15 15 15 15 15 15 15 15 15 15
CENTRE ASSIGNMENTS   15 15 15 15 15 15 15 15 15 15 15 15 15 15 15 15 15 15 15 15
CENTRE ASSIGNMENTS   16 16 16 16 16 16 16 16 16 16 16 16 16 16 16 16 16 16 16 16
CENTRE ASSIGNMENTS   16 16 16 16 16 16 16 16 16 16 16 16 17 17 17 17 17 17 17 17
CENTRE ASSIGNMENTS   17 17 17 17 17 17 17 17 17 17 17 17 17 17 17 17 17 17 17 17
CENTRE ASSIGNMENTS   17 17 17 17 18 18 18 18 18 18 18 18 18 18 18 18 18 18 18 18
CENTRE ASSIGNMENTS   18 18 18 18 18 18 18 18 18 18 18 18 18 18 18 18 19 19 19 19
CENTRE ASSIGNMENTS   20 20 20 20 21 21 21 21 22 22 22 22 23 23 23 23 23 23 23 23
CENTRE ASSIGNMENTS   23 23 23 23 23 23 23 23 23 23 23 23 23 23 23 23 23 23 23 23
CENTRE ASSIGNMENTS   23 23 23 23 24 24 24 24 25 25 25 25
TYPE ASSIGNMENTS      1  1  1  1  1  1  1  1  1  2  2  2  3  3  3  4  4  4  1  2
TYPE ASSIGNMENTS      3  4  1  2  3  4  5  6  7  8  9 10  1  1  1  1  1  1  1  1
TYPE ASSIGNMENTS      1  2  2  2  3  3  3  4  4  4  1  2  3  4  1  2  3  4  5  6
TYPE ASSIGNMENTS      7  8  9 10  1  1  1  1  1  1  1  1  1  2  2  2  3  3  3  4
TYPE ASSIGNMENTS      4  4  1  2  3  4  1  2  3  4  5  6  7  8  9 10  1  1  1  1
TYPE ASSIGNMENTS      1  1  1  1  1  2  2  2  3  3  3  4  4  4  1  2  3  4  1  2
TYPE ASSIGNMENTS      3  4  5  6  7  8  9 10  1  1  1  1  1  1  1  1  1  2  2  2
TYPE ASSIGNMENTS      3  3  3  4  4  4  1  2  3  4  1  2  3  4  5  6  7  8  9 10
TYPE ASSIGNMENTS      1  1  1  1  1  1  1  1  1  2  2  2  3  3  3  4  4  4  1  2
TYPE ASSIGNMENTS      3  4  1  2  3  4  5  6  7  8  9 10  1  1  1  1  1  1  1  1
TYPE ASSIGNMENTS      1  2  2  2  3  3  3  4  4  4  1  2  3  4  1  2  3  4  5  6
TYPE ASSIGNMENTS      7  8  9 10  1  1  1  1  1  1  1  1  1  1  1  1  1  1  1  1
TYPE ASSIGNMENTS      1  1  1  1  1  1  1  1  1  1  1  1  1  2  2  2  3  3  3  4
TYPE ASSIGNMENTS      4  4  1  2  3  4  1  2  3  4  5  6  7  8  9 10  1  1  1  1
TYPE ASSIGNMENTS      1  1  1  1  1  2  2  2  3  3  3  4  4  4  1  2  3  4  1  2
TYPE ASSIGNMENTS      3  4  5  6  7  8  9 10  1  1  1  1  1  1  1  1  1  2  2  2
TYPE ASSIGNMENTS      3  3  3  4  4  4  1  2  3  4  1  2  3  4  5  6  7  8  9 10
TYPE ASSIGNMENTS      1  1  1  1  1  1  1  1  1  2  2  2  3  3  3  4  4  4  1  2
TYPE ASSIGNMENTS      3  4  1  2  3  4  5  6  7  8  9 10  1  1  1  1  1  1  1  1
TYPE ASSIGNMENTS      1  2  2  2  3  3  3  4  4  4  1  2  3  4  1  2  3  4  5  6
TYPE ASSIGNMENTS      7  8  9 10  1  1  1  1  1  1  1  1  1  2  2  2  3  3  3  4
TYPE ASSIGNMENTS      4  4  1  2  3  4  1  2  3  4  5  6  7  8  9 10  1  1  1  1
TYPE ASSIGNMENTS      1  1  1  1  1  1  1  1  1  1  1  1  1  1  1  1  1  1  1  1
TYPE ASSIGNMENTS      1  2  2  2  3  3  3  4  4  4  1  2  3  4  1  2  3  4  5  6
TYPE ASSIGNMENTS      7  8  9 10  1  1  1  1  1  1  1  1
EXPONENTS  0.5484672D+04 0.8252349D+03 0.1880470D+03 0.5296450D+02 0.1689757D+02
EXPONENTS  0.5799635D+01 0.1553962D+02 0.3599934D+01 0.1013762D+01 0.1553962D+02
EXPONENTS  0.3599934D+01 0.1013762D+01 0.1553962D+02 0.3599934D+01 0.1013762D+01
EXPONENTS  0.1553962D+02 0.3599934D+01 0.1013762D+01 0.2700058D+00 0.2700058D+00
EXPONENTS  0.2700058D+00 0.2700058D+00 0.8450000D-01 0.8450000D-01 0.8450000D-01
EXPONENTS  0.8450000D-01 0.8000000D+00 0.8000000D+00 0.8000000D+00 0.8000000D+00
EXPONENTS  0.8000000D+00 0.8000000D+00 0.4173511D+04 0.6274579D+03 0.1429021D+03
EXPONENTS  0.4023433D+02 0.1282021D+02 0.4390437D+01 0.1162636D+02 0.2716280D+01
EXPONENTS  0.7722184D+00 0.1162636D+02 0.2716280D+01 0.7722184D+00 0.1162636D+02
EXPONENTS  0.2716280D+01 0.7722184D+00 0.1162636D+02 0.2716280D+01 0.7722184D+00
EXPONENTS  0.2120315D+00 0.2120315D+00 0.2120315D+00 0.2120315D+00 0.6390000D-01
EXPONENTS  0.6390000D-01 0.6390000D-01 0.6390000D-01 0.8000000D+00 0.8000000D+00
EXPONENTS  0.8000000D+00 0.8000000D+00 0.8000000D+00 0.8000000D+00 0.3047525D+04
EXPONENTS  0.4573695D+03 0.1039487D+03 0.2921016D+02 0.9286663D+01 0.3163927D+01
EXPONENTS  0.7868272D+01 0.1881289D+01 0.5442493D+00 0.7868272D+01 0.1881289D+01
EXPONENTS  0.5442493D+00 0.7868272D+01 0.1881289D+01 0.5442493D+00 0.7868272D+01
EXPONENTS  0.1881289D+01 0.5442493D+00 0.1687145D+00 0.1687145D+00 0.1687145D+00
EXPONENTS  0.1687145D+00 0.4380000D-01 0.4380000D-01 0.4380000D-01 0.4380000D-01
EXPONENTS  0.8000000D+00 0.8000000D+00 0.8000000D+00 0.8000000D+00 0.8000000D+00
EXPONENTS  0.8000000D+00 0.3047525D+04 0.4573695D+03 0.1039487D+03 0.2921016D+02
EXPONENTS  0.9286663D+01 0.3163927D+01 0.7868272D+01 0.1881289D+01 0.5442493D+00
EXPONENTS  0.7868272D+01 0.1881289D+01 0.5442493D+00 0.7868272D+01 0.1881289D+01
EXPONENTS  0.5442493D+00 0.7868272D+01 0.1881289D+01 0.5442493D+00 0.1687145D+00
EXPONENTS  0.1687145D+00 0.1687145D+00 0.1687145D+00 0.4380000D-01 0.4380000D-01
EXPONENTS  0.4380000D-01 0.4380000D-01 0.8000000D+00 0.8000000D+00 0.8000000D+00
EXPONENTS  0.8000000D+00 0.8000000D+00 0.8000000D+00 0.3047525D+04 0.4573695D+03
EXPONENTS  0.1039487D+03 0.2921016D+02 0.9286663D+01 0.3163927D+01 0.7868272D+01
EXPONENTS  0.1881289D+01 0.5442493D+00 0.7868272D+01 0.1881289D+01 0.5442493D+00
EXPONENTS  0.7868272D+01 0.1881289D+01 0.5442493D+00 0.7868272D+01 0.1881289D+01
EXPONENTS  0.5442493D+00 0.1687145D+00 0.1687145D+00 0.1687145D+00 0.1687145D+00
EXPONENTS  0.4380000D-01 0.4380000D-01 0.4380000D-01 0.4380000D-01 0.8000000D+00
EXPONENTS  0.8000000D+00 0.8000000D+00 0.8000000D+00 0.8000000D+00 0.8000000D+00
EXPONENTS  0.3047525D+04 0.4573695D+03 0.1039487D+03 0.2921016D+02 0.9286663D+01
EXPONENTS  0.3163927D+01 0.7868272D+01 0.1881289D+01 0.5442493D+00 0.7868272D+01
EXPONENTS  0.1881289D+01 0.5442493D+00 0.7868272D+01 0.1881289D+01 0.5442493D+00
EXPONENTS  0.7868272D+01 0.1881289D+01 0.5442493D+00 0.1687145D+00 0.1687145D+00
EXPONENTS  0.1687145D+00 0.1687145D+00 0.4380000D-01 0.4380000D-01 0.4380000D-01
EXPONENTS  0.4380000D-01 0.8000000D+00 0.8000000D+00 0.8000000D+00 0.8000000D+00
EXPONENTS  0.8000000D+00 0.8000000D+00 0.3047525D+04 0.4573695D+03 0.1039487D+03
EXPONENTS  0.2921016D+02 0.9286663D+01 0.3163927D+01 0.7868272D+01 0.1881289D+01
EXPONENTS  0.5442493D+00 0.7868272D+01 0.1881289D+01 0.5442493D+00 0.7868272D+01
EXPONENTS  0.1881289D+01 0.5442493D+00 0.7868272D+01 0.1881289D+01 0.5442493D+00
EXPONENTS  0.1687145D+00 0.1687145D+00 0.1687145D+00 0.1687145D+00 0.4380000D-01
EXPONENTS  0.4380000D-01 0.4380000D-01 0.4380000D-01 0.8000000D+00 0.8000000D+00
EXPONENTS  0.8000000D+00 0.8000000D+00 0.8000000D+00 0.8000000D+00 0.1873114D+02
EXPONENTS  0.2825394D+01 0.6401217D+00 0.1612778D+00 0.1873114D+02 0.2825394D+01
EXPONENTS  0.6401217D+00 0.1612778D+00 0.1873114D+02 0.2825394D+01 0.6401217D+00
EXPONENTS  0.1612778D+00 0.1873114D+02 0.2825394D+01 0.6401217D+00 0.1612778D+00
EXPONENTS  0.1873114D+02 0.2825394D+01 0.6401217D+00 0.1612778D+00 0.4173511D+04
EXPONENTS  0.6274579D+03 0.1429021D+03 0.4023433D+02 0.1282021D+02 0.4390437D+01
EXPONENTS  0.1162636D+02 0.2716280D+01 0.7722184D+00 0.1162636D+02 0.2716280D+01
EXPONENTS  0.7722184D+00 0.1162636D+02 0.2716280D+01 0.7722184D+00 0.1162636D+02
EXPONENTS  0.2716280D+01 0.7722184D+00 0.2120315D+00 0.2120315D+00 0.2120315D+00
EXPONENTS  0.2120315D+00 0.6390000D-01 0.6390000D-01 0.6390000D-01 0.6390000D-01
EXPONENTS  0.8000000D+00 0.8000000D+00 0.8000000D+00 0.8000000D+00 0.8000000D+00
EXPONENTS  0.8000000D+00 0.3047525D+04 0.4573695D+03 0.1039487D+03 0.2921016D+02
EXPONENTS  0.9286663D+01 0.3163927D+01 0.7868272D+01 0.1881289D+01 0.5442493D+00
EXPONENTS  0.7868272D+01 0.1881289D+01 0.5442493D+00 0.7868272D+01 0.1881289D+01
EXPONENTS  0.5442493D+00 0.7868272D+01 0.1881289D+01 0.5442493D+00 0.1687145D+00
EXPONENTS  0.1687145D+00 0.1687145D+00 0.1687145D+00 0.4380000D-01 0.4380000D-01
EXPONENTS  0.4380000D-01 0.4380000D-01 0.8000000D+00 0.8000000D+00 0.8000000D+00
EXPONENTS  0.8000000D+00 0.8000000D+00 0.8000000D+00 0.3047525D+04 0.4573695D+03
EXPONENTS  0.1039487D+03 0.2921016D+02 0.9286663D+01 0.3163927D+01 0.7868272D+01
EXPONENTS  0.1881289D+01 0.5442493D+00 0.7868272D+01 0.1881289D+01 0.5442493D+00
EXPONENTS  0.7868272D+01 0.1881289D+01 0.5442493D+00 0.7868272D+01 0.1881289D+01
EXPONENTS  0.5442493D+00 0.1687145D+00 0.1687145D+00 0.1687145D+00 0.1687145D+00
EXPONENTS  0.4380000D-01 0.4380000D-01 0.4380000D-01 0.4380000D-01 0.8000000D+00
EXPONENTS  0.8000000D+00 0.8000000D+00 0.8000000D+00 0.8000000D+00 0.8000000D+00
EXPONENTS  0.3047525D+04 0.4573695D+03 0.1039487D+03 0.2921016D+02 0.9286663D+01
EXPONENTS  0.3163927D+01 0.7868272D+01 0.1881289D+01 0.5442493D+00 0.7868272D+01
EXPONENTS  0.1881289D+01 0.5442493D+00 0.7868272D+01 0.1881289D+01 0.5442493D+00
EXPONENTS  0.7868272D+01 0.1881289D+01 0.5442493D+00 0.1687145D+00 0.1687145D+00
EXPONENTS  0.1687145D+00 0.1687145D+00 0.4380000D-01 0.4380000D-01 0.4380000D-01
EXPONENTS  0.4380000D-01 0.8000000D+00 0.8000000D+00 0.8000000D+00 0.8000000D+00
EXPONENTS  0.8000000D+00 0.8000000D+00 0.3047525D+04 0.4573695D+03 0.1039487D+03
EXPONENTS  0.2921016D+02 0.9286663D+01 0.3163927D+01 0.7868272D+01 0.1881289D+01
EXPONENTS  0.5442493D+00 0.7868272D+01 0.1881289D+01 0.5442493D+00 0.7868272D+01
EXPONENTS  0.1881289D+01 0.5442493D+00 0.7868272D+01 0.1881289D+01 0.5442493D+00
EXPONENTS  0.1687145D+00 0.1687145D+00 0.1687145D+00 0.1687145D+00 0.4380000D-01
EXPONENTS  0.4380000D-01 0.4380000D-01 0.4380000D-01 0.8000000D+00 0.8000000D+00
EXPONENTS  0.8000000D+00 0.8000000D+00 0.8000000D+00 0.8000000D+00 0.3047525D+04
EXPONENTS  0.4573695D+03 0.1039487D+03 0.2921016D+02 0.9286663D+01 0.3163927D+01
EXPONENTS  0.7868272D+01 0.1881289D+01 0.5442493D+00 0.7868272D+01 0.1881289D+01
EXPONENTS  0.5442493D+00 0.7868272D+01 0.1881289D+01 0.5442493D+00 0.7868272D+01
EXPONENTS  0.1881289D+01 0.5442493D+00 0.1687145D+00 0.1687145D+00 0.1687145D+00
EXPONENTS  0.1687145D+00 0.4380000D-01 0.4380000D-01 0.4380000D-01 0.4380000D-01
EXPONENTS  0.8000000D+00 0.8000000D+00 0.8000000D+00 0.8000000D+00 0.8000000D+00
EXPONENTS  0.8000000D+00 0.1873114D+02 0.2825394D+01 0.6401217D+00 0.1612778D+00
EXPONENTS  0.1873114D+02 0.2825394D+01 0.6401217D+00 0.1612778D+00 0.1873114D+02
EXPONENTS  0.2825394D+01 0.6401217D+00 0.1612778D+00 0.1873114D+02 0.2825394D+01
EXPONENTS  0.6401217D+00 0.1612778D+00 0.4173511D+04 0.6274579D+03 0.1429021D+03
EXPONENTS  0.4023433D+02 0.1282021D+02 0.4390437D+01 0.1162636D+02 0.2716280D+01
EXPONENTS  0.7722184D+00 0.1162636D+02 0.2716280D+01 0.7722184D+00 0.1162636D+02
EXPONENTS  0.2716280D+01 0.7722184D+00 0.1162636D+02 0.2716280D+01 0.7722184D+00
EXPONENTS  0.2120315D+00 0.2120315D+00 0.2120315D+00 0.2120315D+00 0.6390000D-01
EXPONENTS  0.6390000D-01 0.6390000D-01 0.6390000D-01 0.8000000D+00 0.8000000D+00
EXPONENTS  0.8000000D+00 0.8000000D+00 0.8000000D+00 0.8000000D+00 0.1873114D+02
EXPONENTS  0.2825394D+01 0.6401217D+00 0.1612778D+00 0.1873114D+02 0.2825394D+01
EXPONENTS  0.6401217D+00 0.1612778D+00
MO    1     MO 0.0        OCC NO =    2.0000000  ORB. ENERGY =    0.000000
 -0.67667788D-01 -0.12454485D+00 -0.20153708D+00 -0.26492613D+00 -0.22722561D+00
 -0.77692294D-01 -0.11915495D+00 -0.53166708D-01  0.15700200D+00 -0.27770994D+00
 -0.21396054D+00 -0.93940200D-01  0.10400107D+00  0.80127215D-01  0.35180163D-01
  0.87213181D-01  0.67193055D-01  0.29501370D-01  0.76743359D-01 -0.14243543D-01
 -0.76566035D-03  0.65414709D-02  0.27133552D-02 -0.15524310D-03 -0.43555256D-03
  0.37352928D-03 -0.87352741D-02 -0.38487499D-02 -0.41716649D-02  0.56038968D-02
 -0.10494712D-02 -0.41261731D-02 -0.31170357D-01 -0.57402816D-01 -0.92747313D-01
 -0.12138629D+00 -0.10397824D+00 -0.35769719D-01 -0.33358794D-01 -0.16490948D-01
  0.43502064D-01  0.42896313D+00  0.33395465D+00  0.15857348D+00 -0.89476805D-01
 -0.69659121D-01 -0.33076615D-01  0.15197652D+00  0.11831614D+00  0.56180691D-01
  0.16764065D-01  0.21348970D-01 -0.66748325D-03  0.94878530D-02  0.15921528D-02
 -0.58093837D-03  0.11846243D-02 -0.37943601D-06 -0.53068901D-02 -0.48661578D-03
 -0.16754637D-02 -0.82325639D-02  0.20808023D-02 -0.12861676D-02  0.33049921D-02
  0.60970652D-02  0.98425536D-02  0.12812080D-01  0.10932571D-01  0.37747542D-02
  0.13037813D-01  0.60091161D-02 -0.16850189D-01  0.87782558D-01  0.67306098D-01
  0.33590460D-01  0.19119967D+00  0.14659978D+00  0.73163566D-01 -0.11380464D+00
 -0.87258179D-01 -0.43547947D-01 -0.71490717D-02  0.27112152D-02  0.67756100D-02
 -0.71225583D-02 -0.44986126D-02  0.42460789D-04 -0.96019467D-03  0.49249514D-04
  0.23336014D-02 -0.73962305D-03  0.15478455D-02 -0.92864807D-02  0.42799679D-02
 -0.15451759D-02 -0.32267390D-01 -0.59527035D-01 -0.96095091D-01 -0.12508726D+00
 -0.10673718D+00 -0.36853784D-01  0.30194041D-01  0.13916406D-01 -0.39023055D-01
 -0.67985617D-01 -0.52127059D-01 -0.26015056D-01 -0.14629413D+00 -0.11216906D+00
 -0.55980221D-01 -0.30438693D-03 -0.23338459D-03 -0.11647527D-03 -0.92980228D-02
 -0.21267084D-02 -0.43665535D-02 -0.10158352D-02 -0.13273966D-01  0.59062224D-03
 -0.73472594D-03 -0.49886371D-04  0.37939848D-02 -0.61005098D-03  0.44102343D-02
 -0.19244924D-01 -0.23621457D-03 -0.21201883D-02  0.21854918D-01  0.40318056D-01
  0.65085843D-01  0.84722429D-01  0.72293802D-01  0.24961313D-01  0.19971628D-02
  0.92049051D-03 -0.25811515D-02  0.51837740D-01  0.39745891D-01  0.19835985D-01
  0.26224631D+00  0.20107383D+00  0.10034994D+00 -0.11220182D-01 -0.86029238D-02
 -0.42934619D-02 -0.55379894D-02  0.32300581D-02  0.67247991D-02  0.94629729D-03
  0.12990357D-01  0.17211870D-02  0.99538971D-03  0.13243314D-03 -0.10633466D-01
  0.71669013D-02 -0.12816732D-02 -0.28118890D-01  0.43357431D-03  0.90578037D-03
  0.50928009D-02  0.93952232D-02  0.15166803D-01  0.19742672D-01  0.16846457D-01
  0.58166769D-02  0.49743353D-02  0.22926666D-02 -0.64288764D-02 -0.81816562D-01
 -0.62731751D-01 -0.31307540D-01 -0.52364421D-01 -0.40149717D-01 -0.20037522D-01
  0.35403442D-01  0.27145114D-01  0.13547314D-01 -0.14279949D-01  0.82671821D-02
 -0.62951656D-02  0.18019472D-02 -0.73124973D-02 -0.10604706D-02  0.15660352D-02
 -0.99303243D-04 -0.40295753D-02  0.11991522D-01 -0.31264971D-02 -0.15832815D-01
 -0.52346893D-02 -0.69348265D-02 -0.77825115D-03 -0.14357214D-02 -0.23176995D-02
 -0.30169561D-02 -0.25743741D-02 -0.88886952D-03 -0.15744900D-01 -0.72568099D-02
  0.20348852D-01  0.13210320D+00  0.10128835D+00  0.50549988D-01 -0.37650920D-01
 -0.28868337D-01 -0.14407323D-01 -0.58084891D-01 -0.44535810D-01 -0.22226490D-01
 -0.17444371D-02  0.91297384D-02  0.36304261D-03 -0.49725860D-02  0.12019813D-01
  0.71632216D-03 -0.14299592D-02 -0.80044267D-04 -0.45930107D-03  0.43650621D-03
 -0.21607162D-02 -0.13909001D-04 -0.30186324D-02  0.35494356D-02  0.60809108D-02
  0.10314376D-01  0.11742552D-01  0.51214195D-02  0.69963744D-02  0.11867175D-01
  0.13510360D-01  0.93507834D-02 -0.25707299D-01 -0.43604445D-01 -0.49642119D-01
 -0.16309313D-01  0.64456693D-02  0.10933075D-01  0.12446920D-01  0.55792181D-03
 -0.17162167D-01 -0.29110283D-01 -0.33141028D-01 -0.56888730D-02 -0.60222603D-02
 -0.11090495D-01 -0.17919219D-01 -0.23452406D-01 -0.20089088D-01 -0.69108788D-02
 -0.20262510D-01 -0.10016789D-01  0.26423647D-01  0.95897317D-01  0.74657592D-01
  0.35450066D-01 -0.17817028D+00 -0.13870841D+00 -0.65863659D-01  0.11496558D+00
  0.89502540D-01  0.42498972D-01  0.83071868D-02  0.70547708D-02 -0.49655708D-02
  0.86656458D-02 -0.33767532D-02 -0.16088773D-03 -0.23318397D-03  0.33453929D-03
 -0.83310356D-02  0.42371969D-02 -0.80320406D-03  0.97194972D-02 -0.48916252D-02
 -0.31939666D-02  0.98732416D-02  0.18214203D-01  0.29403371D-01  0.38274453D-01
  0.32659660D-01  0.11276596D-01  0.20647087D-01  0.95162236D-02 -0.26684484D-01
  0.65623870D-01  0.50316221D-01  0.25111321D-01  0.82557435D-01  0.63299805D-01
  0.31591039D-01 -0.31456088D-02 -0.24118533D-02 -0.12036838D-02 -0.12715115D-01
  0.30867552D-02  0.23522951D-02 -0.10153037D-02  0.17412775D-01 -0.32748951D-02
 -0.83161995D-03 -0.14888897D-03  0.42158498D-03  0.30783588D-02  0.17633337D-02
  0.29426749D-02  0.67664865D-02 -0.67176245D-02  0.12163488D-01  0.22439260D-01
  0.36223923D-01  0.47152785D-01  0.40235557D-01  0.13892371D-01  0.26703468D-01
  0.12307604D-01 -0.34511806D-01 -0.13025976D-01 -0.99874923D-02 -0.49844586D-02
  0.58687778D-01  0.44998066D-01  0.22457189D-01 -0.60535156D-01 -0.46414518D-01
 -0.23164098D-01 -0.64772825D-02  0.24451523D-02  0.18783200D-02 -0.52349126D-02
 -0.23235593D-01 -0.15570522D-02  0.11698329D-02 -0.17580969D-03 -0.56095272D-02
  0.72740230D-02  0.35919823D-02 -0.16013675D-02 -0.16750551D-03  0.32079906D-02
  0.17310171D-01  0.31933886D-01  0.51551193D-01  0.67104336D-01  0.57260252D-01
  0.19770589D-01 -0.21269236D-01 -0.98029713D-02  0.27488555D-01  0.15036173D+00
  0.11528783D+00  0.57536709D-01 -0.21367598D+00 -0.16383319D+00 -0.81764245D-01
 -0.83058013D-01 -0.63683616D-01 -0.31782588D-01  0.73616363D-02  0.43136049D-02
 -0.65831658D-02 -0.47367382D-02  0.10456887D-01  0.91266615D-03 -0.44907872D-03
 -0.15386263D-03 -0.79909166D-02  0.36296788D-02 -0.27270586D-02 -0.14629226D-01
 -0.35088395D-02 -0.28885798D-02 -0.69465595D-02 -0.12815046D-01 -0.20687458D-01
 -0.26928923D-01 -0.22978499D-01 -0.79339234D-02 -0.33459724D-01 -0.15421556D-01
  0.43243653D-01 -0.14002853D+00 -0.10736500D+00 -0.53582658D-01  0.18611400D+00
  0.14270041D+00  0.71217507D-01  0.54044536D-01  0.41437923D-01  0.20680428D-01
  0.13182842D-01 -0.56013653D-02  0.54988399D-02  0.25591440D-02  0.62774755D-02
  0.11870936D-02 -0.36187685D-03 -0.93783717D-04 -0.48306361D-02  0.31752248D-02
 -0.41688737D-02 -0.11106636D-01  0.42081616D-02  0.30181277D-03  0.10054968D-01
  0.18549452D-01  0.29944567D-01  0.38978928D-01  0.33260790D-01  0.11484152D-01
 -0.14244601D-01 -0.65653237D-02  0.18409853D-01  0.11743119D+00  0.90038787D-01
  0.44935665D-01  0.26764103D-02  0.20521017D-02  0.10241426D-02  0.90769325D-01
  0.69596161D-01  0.34733362D-01  0.62005109D-02  0.54477037D-02  0.76728204D-03
  0.62524025D-02 -0.11173833D-01  0.24122920D-02 -0.47637886D-05  0.40746086D-03
  0.38975335D-02 -0.57520445D-03 -0.32218312D-02 -0.49363207D-02  0.12559546D-02
  0.59196275D-02  0.17899329D-02  0.30360650D-02  0.34564527D-02  0.59227054D-02
 -0.12636709D-01 -0.21434251D-01 -0.24402137D-01 -0.11720712D-01 -0.44698586D-02
 -0.75817262D-02 -0.86315273D-02 -0.65489565D-02  0.85866007D-02  0.14564500D-01
  0.16581168D-01  0.55628985D-02 -0.30647224D-02 -0.56439424D-02 -0.91190734D-02
 -0.11934907D-01 -0.10223317D-01 -0.35169396D-02 -0.57268919D-02 -0.28310938D-02
  0.74682440D-02  0.44714833D-01  0.34811212D-01  0.16529595D-01 -0.10527304D+00
 -0.81956745D-01 -0.38915962D-01 -0.67518345D-01 -0.52564110D-01 -0.24959299D-01
  0.15213895D-02  0.14872661D-02 -0.53513052D-02 -0.45207107D-02  0.28526110D-02
  0.20125971D-03 -0.38619675D-03 -0.21973544D-03  0.40690224D-03 -0.28601171D-02
  0.44546843D-03  0.15298543D-02 -0.84926134D-03  0.27811043D-02 -0.55695785D-02
 -0.94470593D-02 -0.10755143D-01 -0.28027964D-02  0.70563027D-02  0.11968825D-01
  0.13626084D-01  0.16259226D-02
MO    2     MO 0.0        OCC NO =    2.0000000  ORB. ENERGY =    0.000000
  0.30091905D-01  0.55385168D-01  0.89623657D-01  0.11781281D+00  0.10104736D+00
  0.34549808D-01  0.68333044D-01  0.30490071D-01 -0.90037588D-01 -0.51604258D-01
 -0.39758298D-01 -0.17456034D-01  0.22743791D+00  0.17522865D+00  0.76934815D-01
 -0.10251491D+00 -0.78982214D-01 -0.34677446D-01 -0.31402691D-01 -0.49895935D-03
  0.97187346D-02 -0.46063516D-02  0.22977056D-02 -0.87544108D-03  0.32524558D-03
  0.15447448D-03  0.47011804D-02 -0.19348147D-02  0.37059645D-02  0.55259227D-02
 -0.38482515D-02  0.52194892D-02  0.20185091D-01  0.37172532D-01  0.60060685D-01
  0.78606525D-01  0.67333534D-01  0.23163516D-01 -0.13555728D-01 -0.67012855D-02
  0.17677562D-01  0.19272904D+00  0.15004263D+00  0.71245550D-01 -0.11640930D+00
 -0.90626503D-01 -0.43032669D-01 -0.20103719D-01 -0.15651066D-01 -0.74316797D-02
  0.55081292D-02  0.11732802D-01 -0.36424535D-02 -0.20716311D-02  0.97972089D-04
 -0.29596569D-03 -0.50770641D-03  0.14108828D-03 -0.54468169D-02  0.87147915D-03
 -0.75900638D-03  0.11359765D-02 -0.11719347D-02 -0.27754671D-02  0.17221548D-01
  0.31770393D-01  0.51287265D-01  0.66760780D-01  0.56967094D-01  0.19669369D-01
 -0.56300902D-03 -0.25949034D-03  0.72763800D-03 -0.47912570D-02 -0.36736320D-02
 -0.18333998D-02 -0.14289182D+00 -0.10956038D+00 -0.54678309D-01  0.61757150D-02
  0.47351466D-02  0.23631700D-02 -0.41706417D-03  0.33478666D-03 -0.57506948D-02
 -0.25506057D-03  0.61170208D-02 -0.54672133D-03 -0.36634397D-03  0.42311512D-04
 -0.74593896D-03 -0.23670151D-02  0.53807271D-03  0.52024960D-02  0.19052888D-03
 -0.63223917D-03  0.10119645D-01  0.18668770D-01  0.30137183D-01  0.39229657D-01
  0.33474738D-01  0.11558022D-01  0.13658550D-01  0.62952133D-02 -0.17652435D-01
  0.10517858D+00  0.80644263D-01  0.40247139D-01  0.10572382D+00  0.81062320D-01
  0.40455779D-01 -0.19084621D-01 -0.14632877D-01 -0.73028311D-02 -0.75973573D-02
  0.46613689D-02  0.46718905D-02 -0.61755709D-03  0.51481087D-02 -0.83239705D-03
  0.10414872D-03  0.43834968D-05 -0.45668008D-03  0.17768154D-03  0.18894011D-02
  0.80653505D-02 -0.19892050D-02 -0.53322691D-03 -0.73691797D-01 -0.13594698D+00
 -0.21946057D+00 -0.28567246D+00 -0.24376482D+00 -0.84166136D-01 -0.11868657D-01
 -0.54702532D-02  0.15339161D-01 -0.16186806D+00 -0.12411016D+00 -0.61939669D-01
  0.23198703D-01  0.17787294D-01  0.88771065D-02 -0.51159997D-02 -0.39226241D-02
 -0.19576644D-02  0.58817135D-02 -0.43134697D-02 -0.41855027D-03  0.43178397D-03
 -0.10523089D-01 -0.10392323D-02 -0.50740681D-03  0.14405247D-03 -0.36910885D-02
  0.91531201D-02 -0.21127704D-02  0.65897215D-02 -0.56969771D-03 -0.59775959D-02
  0.30339762D-01  0.55970936D-01  0.90354445D-01  0.11761464D+00  0.10036079D+00
  0.34652168D-01  0.21794882D-01  0.10045241D-01 -0.28167905D-01  0.65837233D-01
  0.50479815D-01  0.25192965D-01 -0.99019241D-01 -0.75921673D-01 -0.37890236D-01
 -0.26359606D-01 -0.20210874D-01 -0.10086643D-01 -0.34206909D-02 -0.11175176D-02
  0.27370995D-02 -0.29864490D-02  0.20123256D-01  0.34981975D-02 -0.83356609D-03
  0.34778892D-04 -0.49549198D-02  0.21216090D-02  0.62296099D-02  0.13549686D-01
 -0.25571153D-02  0.18411602D-02  0.71448427D-02  0.13180840D-01  0.21277962D-01
  0.27697584D-01  0.23634399D-01  0.81603899D-02  0.29988957D-01  0.13821883D-01
 -0.38758002D-01 -0.56403400D-01 -0.43246550D-01 -0.21583059D-01  0.20530724D-01
  0.15741657D-01  0.78561900D-02 -0.36692319D-01 -0.28133343D-01 -0.14040510D-01
 -0.85887386D-02 -0.30764534D-02 -0.25390746D-02 -0.18466528D-02 -0.22867602D-01
  0.17818998D-02  0.63360873D-03 -0.18977646D-03 -0.36322997D-03  0.36857793D-03
  0.30406274D-02  0.41147335D-02  0.85493060D-03  0.22225631D-02 -0.89161364D-03
 -0.15123455D-02 -0.17217519D-02 -0.12886978D-02 -0.77364796D-02 -0.13122534D-01
 -0.14939541D-01 -0.40501775D-02  0.12173101D-01  0.20647883D-01  0.23506884D-01
  0.81843369D-02 -0.47992150D-02 -0.81403769D-02 -0.92675314D-02  0.23918435D-02
 -0.10109449D-01 -0.17147538D-01 -0.19521866D-01 -0.29676851D-02 -0.86080299D-02
 -0.15852406D-01 -0.25613170D-01 -0.33522133D-01 -0.28714711D-01 -0.98781934D-02
 -0.22826084D-01 -0.11284094D-01  0.29766717D-01 -0.12246443D+00 -0.95340514D-01
 -0.45271048D-01 -0.29923911D+00 -0.23296243D+00 -0.11061880D+00 -0.16718628D+00
 -0.13015719D+00 -0.61803239D-01  0.75064091D-02 -0.40235060D-02 -0.10266673D-01
 -0.98119346D-02 -0.17141840D-02 -0.10006970D-03  0.68439401D-03 -0.18637741D-03
  0.41402903D-02 -0.74017999D-02 -0.14413587D-02  0.19364336D-01  0.89030706D-02
 -0.12464043D-02 -0.66494850D-01 -0.12267002D+00 -0.19802744D+00 -0.25777289D+00
 -0.21995807D+00 -0.75946236D-01  0.64749055D-01  0.29842780D-01 -0.83682271D-01
 -0.46769921D-01 -0.35860209D-01 -0.17896758D-01 -0.31706502D-01 -0.24310534D-01
 -0.12132660D-01 -0.27308051D-01 -0.20938081D-01 -0.10449570D-01 -0.21004804D-01
 -0.29229464D-02 -0.25516468D-02 -0.91367188D-03 -0.71561612D-02  0.14222206D-02
 -0.52771268D-04 -0.12722948D-03 -0.20198055D-02  0.11534531D-01  0.11262476D-01
  0.11468453D-01 -0.94313448D-03  0.57119442D-02  0.24116951D-01  0.44491066D-01
  0.71822375D-01  0.93491392D-01  0.79776374D-01  0.27544865D-01  0.56745035D-01
  0.26153735D-01 -0.73337803D-01  0.32111979D-01  0.24621428D-01  0.12287818D-01
 -0.12876389D+00 -0.98727980D-01 -0.49272181D-01 -0.12824797D-01 -0.98332409D-02
 -0.49074764D-02 -0.23808615D-01  0.39988965D-02 -0.56063359D-02 -0.41252607D-03
  0.15893698D-01  0.55593545D-03 -0.12129190D-02 -0.73397928D-04 -0.22606723D-02
  0.11733132D-03  0.71166455D-02  0.10840961D-01 -0.20035566D-03 -0.28879864D-02
 -0.11535306D-01 -0.21280386D-01 -0.34353142D-01 -0.44717583D-01 -0.38157595D-01
 -0.13174901D-01 -0.31546737D-01 -0.14539862D-01  0.40771291D-01  0.11333471D-02
  0.86897866D-03  0.43368125D-03 -0.10053950D+00 -0.77087310D-01 -0.38471970D-01
  0.82398231D-02  0.63177737D-02  0.31530119D-02  0.12721798D-01 -0.75006740D-03
 -0.17958227D-02  0.15434865D-02 -0.10187997D-01 -0.10738475D-02 -0.66372655D-03
 -0.13896140D-03  0.58906341D-02 -0.70489952D-02 -0.46701150D-02 -0.91292461D-02
 -0.99089292D-03 -0.13066521D-02 -0.19695201D-01 -0.36333801D-01 -0.58654020D-01
 -0.76350106D-01 -0.65149684D-01 -0.22494620D-01 -0.20634405D-01 -0.95103783D-02
  0.26668094D-01 -0.23451174D-02 -0.17980873D-02 -0.89737156D-03  0.12834761D+00
  0.98408807D-01  0.49112892D-01  0.34537406D-01  0.26481092D-01  0.13215921D-01
  0.54555727D-02 -0.33406418D-04  0.34124267D-02  0.19887477D-02  0.11091893D-01
  0.11578403D-02  0.13348980D-03  0.26499588D-03  0.16654926D-04 -0.37288486D-04
 -0.31556776D-02  0.21313048D-02 -0.20123134D-02  0.19657237D-02  0.17427238D-01
  0.32149851D-01  0.51899828D-01  0.67558156D-01  0.57647497D-01  0.19904295D-01
 -0.13046970D-01 -0.60133367D-02  0.16862024D-01 -0.33265066D-01 -0.25505543D-01
 -0.12729053D-01  0.25698436D+00  0.19703931D+00  0.98336424D-01  0.87215058D-02
  0.66870975D-02  0.33373303D-02  0.24928588D-02 -0.26447224D-02  0.99849206D-02
 -0.47225981D-03 -0.85343081D-02  0.13988709D-02  0.51658860D-03 -0.85853555D-04
  0.22530060D-03 -0.13479901D-02 -0.54351555D-02  0.17661174D-01 -0.23500370D-03
 -0.30276530D-02 -0.23814310D-01 -0.40393578D-01 -0.45986660D-01 -0.94080771D-02
  0.82871433D-02  0.14056564D-01  0.16002901D-01  0.43208345D-02 -0.56384875D-02
 -0.95639421D-02 -0.10888210D-01 -0.40059817D-02 -0.20492702D-01 -0.34759502D-01
 -0.39572464D-01 -0.12373408D-01 -0.29491257D-01 -0.54310614D-01 -0.87751156D-01
 -0.11484740D+00 -0.98377090D-01 -0.33842859D-01 -0.53945561D-01 -0.26668034D-01