 b3lyp/6-31g** opt out=wfn                               
GAUSSIAN             16 MOL ORBITALS    140 PRIMITIVES        8 NUCLEI
  O    1    (CENTRE  1)  -1.61776206 -1.92439267  0.00019124  CHARGE =  8.0
  H    2    (CENTRE  2)  -0.49934894 -3.37123710 -0.00122874  CHARGE =  1.0
  C    3    (CENTRE  3)  -0.25153046  0.26085005 -0.00023510  CHARGE =  6.0
  O    4    (CENTRE  4)  -1.31926945  2.26877372  0.00000041  CHARGE =  8.0
  C    5    (CENTRE  5)   2.59823362 -0.07635061  0.00007447  CHARGE =  6.0
  H    6    (CENTRE  6)   3.20822672 -1.12943126  1.67537395  CHARGE =  1.0
  H    7    (CENTRE  7)   3.20867237 -1.13550434 -1.67119890  CHARGE =  1.0
  H    8    (CENTRE  8)   3.49848294  1.77412768 -0.00351573  CHARGE =  1.0
CENTRE ASSIGNMENTS    1  1  1  1  1  1  1  1  1  1  1  1  1  1  1  1  1  1  1  1
CENTRE ASSIGNMENTS    1  1  1  1  1  1  1  1  2  2  2  2  2  2  2  3  3  3  3  3
CENTRE ASSIGNMENTS    3  3  3  3  3  3  3  3  3  3  3  3  3  3  3  3  3  3  3  3
CENTRE ASSIGNMENTS    3  3  3  4  4  4  4  4  4  4  4  4  4  4  4  4  4  4  4  4
CENTRE ASSIGNMENTS    4  4  4  4  4  4  4  4  4  4  4  5  5  5  5  5  5  5  5  5
CENTRE ASSIGNMENTS    5  5  5  5  5  5  5  5  5  5  5  5  5  5  5  5  5  5  5  6
CENTRE ASSIGNMENTS    6  6  6  6  6  6  7  7  7  7  7  7  7  8  8  8  8  8  8  8
TYPE ASSIGNMENTS      1  1  1  1  1  1  1  1  1  2  2  2  3  3  3  4  4  4  1  2
TYPE ASSIGNMENTS      3  4  5  6  7  8  9 10  1  1  1  1  2  3  4  1  1  1  1  1
TYPE ASSIGNMENTS      1  1  1  1  2  2  2  3  3  3  4  4  4  1  2  3  4  5  6  7
TYPE ASSIGNMENTS      8  9 10  1  1  1  1  1  1  1  1  1  2  2  2  3  3  3  4  4
TYPE ASSIGNMENTS      4  1  2  3  4  5  6  7  8  9 10  1  1  1  1  1  1  1  1  1
TYPE ASSIGNMENTS      2  2  2  3  3  3  4  4  4  1  2  3  4  5  6  7  8  9 10  1
TYPE ASSIGNMENTS      1  1  1  2  3  4  1  1  1  1  2  3  4  1  1  1  1  2  3  4
EXPONENTS  0.5484672D+04 0.8252349D+03 0.1880470D+03 0.5296450D+02 0.1689757D+02
EXPONENTS  0.5799635D+01 0.1553962D+02 0.3599934D+01 0.1013762D+01 0.1553962D+02
EXPONENTS  0.3599934D+01 0.1013762D+01 0.1553962D+02 0.3599934D+01 0.1013762D+01
EXPONENTS  0.1553962D+02 0.3599934D+01 0.1013762D+01 0.2700058D+00 0.2700058D+00
EXPONENTS  0.2700058D+00 0.2700058D+00 0.8000000D+00 0.8000000D+00 0.8000000D+00
EXPONENTS  0.8000000D+00 0.8000000D+00 0.8000000D+00 0.1873114D+02 0.2825394D+01
EXPONENTS  0.6401217D+00 0.1612778D+00 0.1100000D+01 0.1100000D+01 0.1100000D+01
EXPONENTS  0.3047525D+04 0.4573695D+03 0.1039487D+03 0.2921016D+02 0.9286663D+01
EXPONENTS  0.3163927D+01 0.7868272D+01 0.1881289D+01 0.5442493D+00 0.7868272D+01
EXPONENTS  0.1881289D+01 0.5442493D+00 0.7868272D+01 0.1881289D+01 0.5442493D+00
EXPONENTS  0.7868272D+01 0.1881289D+01 0.5442493D+00 0.1687145D+00 0.1687145D+00
EXPONENTS  0.1687145D+00 0.1687145D+00 0.8000000D+00 0.8000000D+00 0.8000000D+00
EXPONENTS  0.8000000D+00 0.8000000D+00 0.8000000D+00 0.5484672D+04 0.8252349D+03
EXPONENTS  0.1880470D+03 0.5296450D+02 0.1689757D+02 0.5799635D+01 0.1553962D+02
EXPONENTS  0.3599934D+01 0.1013762D+01 0.1553962D+02 0.3599934D+01 0.1013762D+01
EXPONENTS  0.1553962D+02 0.3599934D+01 0.1013762D+01 0.1553962D+02 0.3599934D+01
EXPONENTS  0.1013762D+01 0.2700058D+00 0.2700058D+00 0.2700058D+00 0.2700058D+00
EXPONENTS  0.8000000D+00 0.8000000D+00 0.8000000D+00 0.8000000D+00 0.8000000D+00
EXPONENTS  0.8000000D+00 0.3047525D+04 0.4573695D+03 0.1039487D+03 0.2921016D+02
EXPONENTS  0.9286663D+01 0.3163927D+01 0.7868272D+01 0.1881289D+01 0.5442493D+00
EXPONENTS  0.7868272D+01 0.1881289D+01 0.5442493D+00 0.7868272D+01 0.1881289D+01
EXPONENTS  0.5442493D+00 0.7868272D+01 0.1881289D+01 0.5442493D+00 0.1687145D+00
EXPONENTS  0.1687145D+00 0.1687145D+00 0.1687145D+00 0.8000000D+00 0.8000000D+00
EXPONENTS  0.8000000D+00 0.8000000D+00 0.8000000D+00 0.8000000D+00 0.1873114D+02
EXPONENTS  0.2825394D+01 0.6401217D+00 0.1612778D+00 0.1100000D+01 0.1100000D+01
EXPONENTS  0.1100000D+01 0.1873114D+02 0.2825394D+01 0.6401217D+00 0.1612778D+00
EXPONENTS  0.1100000D+01 0.1100000D+01 0.1100000D+01 0.1873114D+02 0.2825394D+01
EXPONENTS  0.6401217D+00 0.1612778D+00 0.1100000D+01 0.1100000D+01 0.1100000D+01
MO    1     MO 0.0        OCC NO =    2.0000000  ORB. ENERGY =  -19.196137
  0.82567568D+00  0.15196840D+01  0.24591356D+01  0.32326026D+01  0.27725845D+01
  0.94799372D+00 -0.15957968D-01 -0.71204141D-02  0.21026678D-01  0.32491853D-02
  0.25033221D-02  0.10990932D-02 -0.53515896D-03 -0.41231113D-03 -0.18102679D-03
 -0.25523677D-05 -0.19664617D-05 -0.86338259D-06  0.34479885D-02  0.79622407D-04
  0.22476641D-03 -0.46335275D-07 -0.90371321D-02 -0.89597164D-02 -0.90564459D-02
 -0.14641489D-03 -0.12670988D-06  0.15866132D-06  0.64528844D-04  0.10945313D-03
  0.12460852D-03 -0.22102012D-03  0.99794205D-04 -0.33086764D-03 -0.17424918D-06
 -0.55035411D-05 -0.10152959D-04 -0.16390023D-04 -0.21334941D-04 -0.18205143D-04
 -0.62857985D-05 -0.11988948D-03 -0.55256950D-04  0.15494626D-03 -0.35884122D-03
 -0.27513668D-03 -0.13731249D-03 -0.38554713D-03 -0.29561308D-03 -0.14753165D-03
  0.16340775D-06  0.12529070D-06  0.62528838D-07 -0.33333675D-03  0.31833653D-03
  0.20267904D-03 -0.10478432D-06  0.35303167D-04 -0.14572178D-05 -0.13286397D-04
  0.13579629D-03  0.62248745D-08 -0.52952773D-07 -0.36774763D-04 -0.67685195D-04
 -0.10952742D-03 -0.14397686D-03 -0.12348812D-03 -0.42222685D-04 -0.99578869D-06
 -0.44431897D-06  0.13120799D-05  0.15371178D-03  0.11842664D-03  0.51995675D-04
  0.59542124D-04  0.45873997D-04  0.20141156D-04 -0.10811721D-06 -0.83298481D-07
 -0.36572520D-07  0.11657876D-03 -0.90934390D-04 -0.80631982D-04  0.52531306D-07
 -0.77164233D-04 -0.89542779D-04  0.26666274D-04 -0.38063309D-04  0.97487334D-07
 -0.10170808D-07  0.11122913D-04  0.20519603D-04  0.33125001D-04  0.43118909D-04
  0.36793443D-04  0.12703892D-04 -0.68670927D-04 -0.31650367D-04  0.88750934D-04
  0.42351722D-04  0.32472614D-04  0.16206110D-04  0.38807506D-04  0.29755134D-04
  0.14849897D-04 -0.58343829D-09 -0.44734347D-09 -0.22325575D-09 -0.21546957D-03
  0.55400985D-04 -0.78740989D-04  0.94224434D-07 -0.55785147D-04 -0.33506306D-04
  0.46964487D-04 -0.74681347D-05  0.43877377D-07  0.10782452D-06 -0.15998709D-05
 -0.27136838D-05 -0.30894331D-05  0.10502490D-04 -0.52195323D-04  0.21828086D-04
  0.20009466D-04 -0.16321043D-05 -0.27683579D-05 -0.31516776D-05  0.10614610D-04
 -0.52427078D-04  0.21714182D-04 -0.19951590D-04  0.22134749D-04  0.37544724D-04
  0.42743341D-04  0.24724857D-04  0.40787526D-04 -0.33010882D-04  0.12890563D-06
MO    2     MO 0.0        OCC NO =    2.0000000  ORB. ENERGY =  -19.134262
  0.37599687D-04  0.69203497D-04  0.11198432D-03  0.14720652D-03  0.12625818D-03
  0.43169816D-04 -0.53366938D-04 -0.23812224D-04  0.70317815D-04  0.12942059D-03
  0.99711590D-04  0.43778759D-04 -0.51830265D-04 -0.39932425D-04 -0.17532485D-04
 -0.16061169D-07 -0.12374265D-07 -0.54329688D-08 -0.12077119D-03 -0.13451599D-03
  0.53956750D-04  0.28131100D-07  0.41285267D-04 -0.10479901D-03  0.48203589D-04
  0.10363545D-03  0.27396260D-07 -0.12625683D-06  0.27657351D-04  0.46912103D-04
  0.53407771D-04 -0.25007167D-04 -0.17696593D-03 -0.60976217D-04  0.21695768D-06
 -0.47124981D-05 -0.86936389D-05 -0.14034229D-04 -0.18268396D-04 -0.15588455D-04
 -0.53823190D-05 -0.15704458D-03 -0.72381705D-04  0.20296586D-03  0.31299670D-04
  0.23998602D-04  0.11976984D-04 -0.15787018D-03 -0.12104484D-03 -0.60409859D-04
  0.12730154D-07  0.97606747D-08  0.48712607D-08 -0.57452284D-03  0.34582673D-03
 -0.54958234D-03 -0.23642578D-07 -0.25564556D-03 -0.88121890D-03 -0.51941403D-04
  0.93318572D-03  0.16437439D-06 -0.27244370D-06  0.82565525D+00  0.15196464D+01
  0.24590748D+01  0.32325226D+01  0.27725159D+01  0.94797026D+00 -0.15778151D-01
 -0.70401800D-02  0.20789746D-01  0.17889090D-02  0.13782579D-02  0.60512946D-03
 -0.34076872D-02 -0.26254393D-02 -0.11527093D-02 -0.24629030D-06 -0.18975340D-06
 -0.83311963D-07  0.40524594D-02  0.24410848D-03 -0.49344853D-03 -0.95372103D-07
 -0.90622986D-02 -0.86398439D-02 -0.92311731D-02 -0.59828716D-03 -0.89465010D-07
  0.16019975D-06  0.85550275D-05  0.15782355D-04  0.25477615D-04  0.33164285D-04
  0.28299144D-04  0.97710144D-05 -0.39670155D-04 -0.18283938D-04  0.51270072D-04
 -0.85125695D-05 -0.65268984D-05 -0.32573797D-05 -0.32599739D-04 -0.24995412D-04
 -0.12474462D-04  0.99845079D-07  0.76554874D-07  0.38206247D-07 -0.19639885D-03
  0.10089247D-03  0.12236213D-03 -0.84815899D-07 -0.16056916D-05  0.13974798D-04
  0.34336862D-04  0.10749243D-04 -0.60111378D-07 -0.85904607D-07  0.10257459D-04
  0.17398592D-04  0.19807682D-04  0.21268638D-04  0.39653437D-04 -0.61577099D-04
 -0.37508384D-04  0.10309001D-04  0.17486017D-04  0.19907212D-04  0.21227687D-04
  0.40115699D-04 -0.61537208D-04  0.37803501D-04  0.31493335D-06  0.53418658D-06
  0.60815254D-06 -0.70710612D-04 -0.84142809D-04  0.68616442D-04 -0.23854439D-06
MO    3     MO 0.0        OCC NO =    2.0000000  ORB. ENERGY =  -10.322986
 -0.26989059D-04 -0.49674277D-04 -0.80382357D-04 -0.10566486D-03 -0.90628135D-04
 -0.30987298D-04 -0.16415237D-03 -0.73244469D-04  0.21629190D-03 -0.41403218D-03
 -0.31898948D-03 -0.14005356D-03 -0.35290327D-04 -0.27189295D-04 -0.11937565D-04
  0.33667264D-07  0.25938812D-07  0.11388536D-07 -0.23726591D-03  0.48843472D-05
 -0.47229187D-03  0.10733005D-06 -0.12838065D-05 -0.59715528D-03  0.35945162D-03
 -0.79888429D-03  0.34936200D-06  0.43582747D-06 -0.10363421D-04 -0.17578324D-04
 -0.20012301D-04  0.53512391D-05  0.24600622D-03  0.30784867D-03 -0.25334959D-06
  0.53255512D+00  0.98246021D+00  0.15859954D+01  0.20644948D+01  0.17616371D+01
  0.60825097D+00 -0.19247967D-01 -0.88713704D-02  0.24876249D-01 -0.95870980D-03
 -0.73507787D-03 -0.36685537D-03 -0.29080348D-03 -0.22296966D-03 -0.11127749D-03
  0.49986830D-06  0.38326731D-06  0.19127725D-06 -0.13826966D-02 -0.81557469D-03
  0.30883425D-03 -0.36655483D-07 -0.98715807D-02 -0.90649040D-02 -0.10638597D-01
 -0.37433059D-03 -0.28671469D-06  0.19460099D-07 -0.98237878D-04 -0.18081014D-03
 -0.29258493D-03 -0.38461108D-03 -0.32987869D-03 -0.11279113D-03 -0.36708761D-03
 -0.16379378D-03  0.48368522D-03 -0.17518478D-03 -0.13497043D-03 -0.59259289D-04
 -0.17951256D-03 -0.13830475D-03 -0.60723235D-04 -0.16845769D-06 -0.12978757D-06
 -0.56983732D-07 -0.11339190D-02 -0.74064168D-04  0.65383834D-03  0.14167361D-06
  0.43577743D-03 -0.11638743D-03  0.53366863D-03  0.19691503D-03  0.54400719D-07
 -0.24202772D-06  0.45752392D-03  0.84404229D-03  0.13625460D-02  0.17736300D-02
  0.15134417D-02  0.52255505D-03  0.11748883D-03  0.54150495D-04 -0.15184364D-03
  0.28656212D-03  0.21971766D-03  0.10965451D-03 -0.35435103D-04 -0.27169389D-04
 -0.13559429D-04  0.12805856D-06  0.98187178D-07  0.49002283D-07  0.10213285D-02
 -0.44967109D-03  0.88914976D-05 -0.17330653D-06 -0.52987645D-03 -0.29722236D-03
 -0.27177164D-03  0.74680986D-04 -0.70654954D-07  0.18809519D-06 -0.43999739D-04
 -0.74631885D-04 -0.84965763D-04  0.48640629D-04 -0.72029015D-04  0.84404348D-04
 -0.93304463D-04 -0.44017504D-04 -0.74662018D-04 -0.85000069D-04  0.48403836D-04
 -0.71862772D-04  0.84578609D-04  0.92939830D-04 -0.27817966D-04 -0.47184535D-04
 -0.53717925D-04  0.43043784D-04 -0.25789372D-04 -0.12129476D-03  0.37971999D-06
MO    4     MO 0.0        OCC NO =    2.0000000  ORB. ENERGY =  -10.211488
 -0.49471142D-04 -0.91053311D-04 -0.14734144D-03 -0.19368445D-03 -0.16612203D-03
 -0.56799943D-04  0.18725585D-03  0.83553197D-04 -0.24673371D-03 -0.16598854D-03
 -0.12788522D-03 -0.56148500D-04 -0.22608757D-03 -0.17418828D-03 -0.76478038D-04
 -0.16273530D-06 -0.12537878D-06 -0.55048037D-07  0.30339876D-03  0.57540942D-05
  0.19976418D-03  0.71463175D-07 -0.14962636D-03 -0.83421072D-04 -0.31030828D-03
  0.13980196D-03  0.20958174D-06 -0.94233779D-07  0.46387255D-05  0.78681563D-05
  0.89576179D-05  0.77330169D-04  0.26972124D-04  0.12886182D-03  0.23748640D-06
 -0.62130973D-03 -0.11461951D-02 -0.18503143D-02 -0.24085595D-02 -0.20552282D-02
 -0.70962090D-03  0.14035756D-03  0.64690673D-04 -0.18139940D-03 -0.14424402D-03
 -0.11059716D-03 -0.55195736D-04  0.40309662D-04  0.30906892D-04  0.15424705D-04
 -0.77431259D-08 -0.59369378D-08 -0.29629481D-08  0.84917288D-03  0.55134160D-03
  0.36990155D-04 -0.42794401D-07 -0.63765806D-03 -0.23729128D-03 -0.20680985D-03
  0.26109732D-04  0.50728956D-07  0.86593946D-07 -0.23320760D-04 -0.42922648D-04
 -0.69456946D-04 -0.91303100D-04 -0.78310138D-04 -0.26775566D-04  0.89223743D-04
  0.39811460D-04 -0.11756378D-03  0.37568644D-04  0.28944615D-04  0.12708245D-04
  0.44542357D-04  0.34317484D-04  0.15067224D-04 -0.26966222D-06 -0.20776021D-06
 -0.91217921D-07  0.11489411D-03 -0.11519091D-03 -0.10757147D-03  0.90083277D-07
 -0.10113158D-03  0.69861784D-04 -0.19600208D-03  0.27987303D-04  0.22607717D-06
  0.30406029D-07  0.53254747D+00  0.98244609D+00  0.15859726D+01  0.20644651D+01
  0.17616118D+01  0.60824223D+00 -0.20033790D-01 -0.92335557D-02  0.25891854D-01
 -0.70009865D-04 -0.53679124D-04 -0.26789645D-04 -0.23898632D-03 -0.18323955D-03
 -0.91449379D-04  0.33373858D-06  0.25588957D-06  0.12770683D-06 -0.33742566D-02
  0.25913881D-03 -0.27553136D-04 -0.24914547D-07 -0.10209495D-01 -0.99942599D-02
 -0.99668179D-02  0.81190239D-04 -0.26563781D-06  0.38796244D-07 -0.19685457D-04
 -0.33390260D-04 -0.38013631D-04  0.47637725D-03 -0.34008040D-06 -0.16823098D-03
  0.30906156D-03 -0.19681923D-04 -0.33384266D-04 -0.38006807D-04  0.47624510D-03
 -0.44316219D-06 -0.16944201D-03 -0.30850798D-03 -0.13545996D-04 -0.22976574D-04
 -0.26158017D-04  0.47182375D-03  0.61046300D-04  0.25693613D-03 -0.38421954D-06
MO    5     MO 0.0        OCC NO =    2.0000000  ORB. ENERGY =   -1.098927
 -0.13867867D+00 -0.25524278D+00 -0.41303100D+00 -0.54294082D+00 -0.46567718D+00
 -0.15922294D+00 -0.22624653D+00 -0.10095076D+00  0.29810894D+00  0.29375353D+00
  0.22632126D+00  0.99367221D-01  0.10861890D+00  0.83685010D-01  0.36742227D-01
 -0.20507109D-03 -0.15799622D-03 -0.69368849D-04  0.94144606D-01  0.10544261D-01
  0.90469080D-02 -0.68978464D-05  0.85327510D-03  0.64747772D-02 -0.92060153D-02
  0.14320482D-01 -0.13985562D-04 -0.20448290D-05  0.22895142D-01  0.38834495D-01
  0.44211700D-01  0.12694164D-02 -0.15814257D-01  0.25013803D-01  0.22327283D-04
 -0.62902145D-01 -0.11604217D+00 -0.18732805D+00 -0.24384546D+00 -0.20807377D+00
 -0.71842874D-01 -0.90891190D-01 -0.41891666D-01  0.11746861D+00 -0.11259695D+00
 -0.86332200D-01 -0.43085819D-01 -0.12853657D-01 -0.98553688D-02 -0.49185198D-02
  0.32136280D-04  0.24640061D-04  0.12297117D-04  0.10431501D-01  0.74121025D-02
 -0.89349141D-03 -0.14625839D-05 -0.10322880D-01  0.17924003D-01 -0.22796162D-01
  0.38121316D-02 -0.55121765D-05 -0.22914624D-06 -0.81725462D-01 -0.15041848D+00
 -0.24340549D+00 -0.31996333D+00 -0.27443069D+00 -0.93832513D-01 -0.13057377D+00
 -0.58261761D-01  0.17204776D+00  0.11780418D+00  0.90761767D-01  0.39849304D-01
 -0.27463860D+00 -0.21159424D+00 -0.92901266D-01 -0.21921112D-04 -0.16889035D-04
 -0.74151960D-05  0.53872517D-01  0.18093742D-02 -0.10442418D-01 -0.17136907D-06
 -0.61348036D-02  0.76013899D-02 -0.41749043D-02 -0.99757634D-02  0.74449121D-06
  0.16923560D-05 -0.95467989D-02 -0.17611980D-01 -0.28431196D-01 -0.37008970D-01
 -0.31579821D-01 -0.10903753D-01 -0.13539661D-01 -0.62404174D-02  0.17498782D-01
 -0.34412537D-01 -0.26385351D-01 -0.13168139D-01 -0.15968345D-03 -0.12243514D-03
 -0.61103717D-04 -0.16955943D-05 -0.13000741D-05 -0.64882811D-06 -0.16902031D-02
  0.12033591D-02 -0.78137919D-03  0.14091145D-05  0.76489443D-02 -0.14113551D-02
 -0.14637005D-02 -0.94696724D-03  0.69547105D-06  0.62603524D-06  0.14768429D-02
  0.25050051D-02  0.28518598D-02  0.92764730D-04 -0.10108484D-02  0.52557724D-03
 -0.10076853D-02  0.14777640D-02  0.25065674D-02  0.28536384D-02  0.93621626D-04
 -0.10146227D-02  0.52792091D-03  0.10055690D-02  0.14629911D-02  0.24815098D-02
  0.28251113D-02  0.12751036D-03 -0.86811941D-03 -0.98982317D-03  0.23999462D-05
MO    6     MO 0.0        OCC NO =    2.0000000  ORB. ENERGY =   -1.018228
  0.10114993D+00  0.18616986D+00  0.30125798D+00  0.39601205D+00  0.33965723D+00
  0.11613458D+00  0.16586807D+00  0.74010008D-01 -0.21855254D+00 -0.21799720D+00
 -0.16795509D+00 -0.73741331D-01  0.84681101D-01  0.65242223D-01  0.28644850D-01
  0.17616209D-03  0.13572339D-03  0.59589881D-04 -0.73382045D-01 -0.96355902D-02
  0.16226135D-02  0.59772412D-05 -0.12831479D-02  0.52019685D-02  0.61162714D-02
  0.19623015D-02  0.10871164D-04 -0.47269083D-05 -0.20721552D-01 -0.35147674D-01
 -0.40014385D-01 -0.23175585D-02  0.12733977D-01 -0.21348669D-01 -0.17685804D-04
 -0.32335700D-01 -0.59653053D-01 -0.96298523D-01 -0.12535206D+00 -0.10696314D+00
 -0.36931803D-01 -0.48891484D-01 -0.22534040D-01  0.63187801D-01 -0.61857773D-01
 -0.47428617D-01 -0.23670204D-01  0.29895495D+00  0.22921969D+00  0.11439669D+00
  0.16520673D-04  0.12667004D-04  0.63217227D-05  0.81360671D-02  0.13161199D-02
 -0.44075889D-02  0.44118828D-06 -0.71182808D-02  0.14337718D-02 -0.12074166D-01
 -0.54874688D-01 -0.19755034D-05  0.12514287D-04 -0.14107276D+00 -0.25964919D+00
 -0.42016141D+00 -0.55231393D+00 -0.47371645D+00 -0.16197170D+00 -0.22697954D+00
 -0.10127783D+00  0.29907478D+00  0.22314473D+00  0.17192099D+00  0.75482574D-01
 -0.36566118D+00 -0.28172223D+00 -0.12369123D+00 -0.44250555D-04 -0.34092667D-04
 -0.14968517D-04  0.93273424D-01  0.72902042D-02 -0.99588137D-02 -0.19641553D-05
 -0.46194908D-02  0.22495947D-02 -0.74526253D-02 -0.17408271D-01 -0.17413493D-05
  0.32675784D-05 -0.28900767D-02 -0.53316272D-02 -0.86068995D-02 -0.11203626D-01
 -0.95600741D-02 -0.33008639D-02 -0.42066435D-02 -0.19388382D-02  0.54367046D-02
 -0.10066329D-01 -0.77182224D-02 -0.38519339D-02  0.16878478D-01  0.12941347D-01
  0.64586390D-02  0.44370183D-06  0.34020242D-06  0.16978485D-06 -0.51498407D-03
  0.95090304D-03  0.27572513D-02 -0.21381901D-06  0.27940471D-02  0.25324750D-03
 -0.52573524D-03 -0.73339352D-02 -0.79240908D-07 -0.42878388D-05  0.19711795D-03
  0.33434936D-03  0.38064492D-03  0.40565222D-04  0.78795740D-03 -0.41954742D-03
 -0.27151100D-03  0.19537803D-03  0.33139812D-03  0.37728505D-03  0.41109323D-04
  0.79260482D-03 -0.41834417D-03  0.27156512D-03  0.10340759D-02  0.17539885D-02
  0.19968539D-02 -0.70041901D-03 -0.19574722D-02 -0.36618682D-03  0.40691271D-06
MO    7     MO 0.0        OCC NO =    2.0000000  ORB. ENERGY =   -0.757821
  0.31406173D-01  0.57804124D-01  0.93537983D-01  0.12295830D+00  0.10546062D+00
  0.36058776D-01  0.52902187D-01  0.23604853D-01 -0.69705447D-01  0.10296943D+00
  0.79332396D-01  0.34831195D-01  0.10577795D+00  0.81496210D-01  0.35781226D-01
  0.69684312D-04  0.53688006D-04  0.23571926D-04 -0.29571204D-01  0.38769120D-02
  0.40344118D-02  0.24311483D-05  0.66330861D-02 -0.14474793D-02  0.34092948D-03
  0.87364868D-02 -0.36285595D-06 -0.45932879D-05 -0.56225623D-02 -0.95369298D-02
 -0.10857458D-01 -0.10650063D-02  0.69563352D-02 -0.29023208D-02 -0.44811820D-05
 -0.32692476D-01 -0.60311234D-01 -0.97361032D-01 -0.12673514D+00 -0.10814332D+00
 -0.37339290D-01 -0.50619255D-01 -0.23330368D-01  0.65420788D-01  0.23606890D+00
  0.18100266D+00  0.90333014D-01 -0.69343098D-01 -0.53167889D-01 -0.26534503D-01
  0.16365549D-04  0.12548065D-04  0.62623639D-05  0.14644600D-01  0.46474194D-02
 -0.35350957D-02  0.32795814D-06  0.12774947D-01 -0.13201880D-01 -0.49051322D-02
 -0.95298150D-03  0.74010504D-05 -0.31846404D-05  0.33304817D-01  0.61298642D-01
  0.99192774D-01  0.13039168D+00  0.11183618D+00  0.38238691D-01  0.57345580D-01
  0.25587486D-01 -0.75560189D-01  0.90181203D-01  0.69479755D-01  0.30505355D-01
  0.48443860D-01  0.37323383D-01  0.16386975D-01  0.19392897D-04  0.14941181D-04
  0.65599834D-05 -0.22488447D-01  0.46622975D-02 -0.46394693D-03 -0.13967014D-06
  0.40406515D-02 -0.18133173D-02 -0.65374996D-03 -0.65885319D-02 -0.54570110D-06
 -0.96128898D-06 -0.10068586D+00 -0.18574574D+00 -0.29985122D+00 -0.39031720D+00
 -0.33305837D+00 -0.11499705D+00 -0.14481953D+00 -0.66747189D-01  0.18716609D+00
 -0.49270969D-01 -0.37777854D-01 -0.18853797D-01 -0.65154352D-02 -0.49956225D-02
 -0.24931657D-02  0.77479173D-05  0.59406115D-05  0.29647815D-05  0.61635831D-01
 -0.17269834D-02 -0.14121802D-02  0.15470819D-05 -0.40939071D-02 -0.10895580D-01
 -0.10477011D-01 -0.57389713D-03 -0.29855162D-05 -0.12218728D-05  0.26217747D-01
  0.44470261D-01  0.50627821D-01  0.55110830D-02 -0.66333681D-02  0.93638646D-02
 -0.15294870D-01  0.26218359D-01  0.44471299D-01  0.50629002D-01  0.55137926D-02
 -0.66370302D-02  0.94183515D-02  0.15259451D-01  0.24862721D-01  0.42171881D-01
  0.48011196D-01  0.55076726D-02 -0.86377600D-02 -0.16858264D-01  0.31054992D-04
MO    8     MO 0.0        OCC NO =    2.0000000  ORB. ENERGY =   -0.615887
  0.19294921D-01  0.35512955D-01  0.57466665D-01  0.75541539D-01  0.64791539D-01
  0.22153328D-01  0.30545264D-01  0.13629237D-01 -0.40247320D-01  0.50478830D-02
  0.38891217D-02  0.17075339D-02  0.14213883D+01  0.10951031D+01  0.48080924D+00
  0.51195317D-03  0.39443232D-03  0.17317703D-03 -0.19534660D-01 -0.76126578D-03
  0.57989913D-01  0.20581294D-04  0.38296860D-03  0.42130550D-02  0.17854496D-02
  0.47766624D-01  0.19663096D-04 -0.33856817D-04 -0.47514146D-01 -0.80592985D-01
 -0.91752264D-01 -0.20324466D-01  0.25043641D-01 -0.13527949D-01 -0.24942611D-04
 -0.52049362D-01 -0.96020909D-01 -0.15500752D+00 -0.20177373D+00 -0.17217389D+00
 -0.59447507D-01 -0.87111640D-01 -0.40149675D-01  0.11258388D+00 -0.14649804D+00
 -0.11232540D+00 -0.56058249D-01 -0.25106047D+00 -0.19249724D+00 -0.96069615D-01
  0.10525475D-03  0.80702664D-04  0.40276285D-04  0.33417280D-01  0.10969390D-02
 -0.75067290D-02  0.41034464D-05  0.18521630D-02 -0.10942702D-01 -0.12361664D-01
  0.38569087D-01 -0.13071514D-04 -0.21428810D-04  0.49415851D-01  0.90951544D-01
  0.14717677D+00  0.19346798D+00  0.16593636D+00  0.56736460D-01  0.82109429D-01
  0.36637067D-01 -0.10818975D+00 -0.87935552D-01 -0.67749602D-01 -0.29745724D-01
 -0.28735830D+00 -0.22139408D+00 -0.97203927D-01  0.83641778D-04  0.64441480D-04
  0.28293281D-04 -0.45430469D-01 -0.38783748D-02 -0.13917527D-01  0.24701662D-05
 -0.17213088D-02  0.13694470D-01 -0.16049809D-03 -0.33259664D-02  0.26262220D-05
 -0.26312747D-05  0.17860874D-01  0.32949824D-01  0.53191233D-01  0.69239181D-01
  0.59081919D-01  0.20399567D-01  0.25073290D-01  0.11556256D-01 -0.32404949D-01
 -0.95080593D-01 -0.72901768D-01 -0.36383091D-01 -0.15690377D-01 -0.12030386D-01
 -0.60040057D-02  0.44785329D-04  0.34338549D-04  0.17137343D-04 -0.16763902D-01
 -0.79198636D-03 -0.48030794D-04 -0.13375384D-05  0.10333771D-01 -0.27504190D-02
  0.34030627D-03  0.21685199D-02  0.13784417D-05  0.14570470D-05 -0.75431118D-02
 -0.12794545D-01 -0.14566138D-01 -0.33881268D-02 -0.61876502D-03 -0.22347735D-02
  0.38789434D-02 -0.75512283D-02 -0.12808312D-01 -0.14581811D-01 -0.33975142D-02
 -0.61279393D-03 -0.22465821D-02 -0.38702501D-02 -0.10000593D-01 -0.16962898D-01
 -0.19311660D-01 -0.54096947D-02  0.19818274D-02  0.49962981D-02 -0.93236735D-05
MO    9     MO 0.0        OCC NO =    2.0000000  ORB. ENERGY =   -0.516351
 -0.37336585D-01 -0.68719248D-01 -0.11120072D+00 -0.14617645D+00 -0.12537469D+00
 -0.42867737D-01 -0.65890144D-01 -0.29400054D-01  0.86818753D-01 -0.62900595D+00
 -0.48461517D+00 -0.21277216D+00  0.44949351D+00  0.34631052D+00  0.15204897D+00
  0.48954048D-03  0.37716455D-03  0.16559555D-03  0.41638319D-01 -0.33238756D-01
  0.16773408D-01  0.24667458D-04 -0.18398603D-01  0.45030496D-02  0.48479371D-02
  0.19164774D-02  0.30787096D-04 -0.46898442D-05 -0.21731945D-01 -0.36861492D-01
 -0.41965505D-01 -0.10025870D-01  0.14345574D-02 -0.83821108D-02 -0.67122643D-05
  0.47139980D-01  0.86964057D-01  0.14038695D+00  0.18274210D+00  0.15593417D+00
  0.53840320D-01  0.79517081D-01  0.36649350D-01 -0.10276860D+00 -0.34440324D+00
 -0.26406656D+00 -0.13178772D+00 -0.40565445D-01 -0.31103010D-01 -0.15522582D-01
  0.10408998D-03  0.79809595D-04  0.39830582D-04 -0.28633945D-01 -0.16674862D-01
  0.34756517D-02  0.71027018D-05  0.16205217D-01  0.32829921D-02  0.54471159D-02
  0.14078808D-01 -0.14719384D-04 -0.11080415D-04 -0.28282841D-01 -0.52055526D-01
 -0.84235667D-01 -0.11073014D+00 -0.94972599D-01 -0.32472745D-01 -0.51390962D-01
 -0.22930547D-01  0.67714213D-01 -0.50963760D+00 -0.39264830D+00 -0.17239375D+00
  0.61561527D-01  0.47429837D-01  0.20824253D-01  0.16742195D-03  0.12898959D-03
  0.56633378D-04  0.21960530D-01 -0.25338623D-01  0.65933178D-02  0.77843135D-05
 -0.76691395D-02  0.21159464D-02  0.33419295D-02  0.22253040D-01  0.52003068D-05
 -0.78609300D-05 -0.25067825D-01 -0.46245243D-01 -0.74654160D-01 -0.97177535D-01
 -0.82921767D-01 -0.28630893D-01 -0.37478615D-01 -0.17273859D-01  0.48437704D-01
  0.39810440D+00  0.30524121D+00  0.15233675D+00 -0.61906881D-01 -0.47466270D-01
 -0.23688995D-01  0.58653563D-04  0.44971832D-04  0.22444096D-04  0.22020409D-01
  0.17334876D-01 -0.24689477D-02  0.68923588D-06 -0.22494227D-01  0.70040085D-02
  0.85214474D-02  0.53930095D-02 -0.16502608D-04  0.33379951D-05  0.23460399D-01
  0.39793277D-01  0.45303239D-01  0.12747998D-01  0.48800153D-02  0.45407374D-02
 -0.97177044D-02  0.23473519D-01  0.39815531D-01  0.45328575D-01  0.12751411D-01
  0.48760540D-02  0.45808900D-02  0.97035259D-02  0.20193740D-01  0.34252405D-01
  0.38995153D-01  0.98225551D-02  0.46734376D-02 -0.10840514D-01  0.18137585D-04
MO   10     MO 0.0        OCC NO =    2.0000000  ORB. ENERGY =   -0.470848
 -0.46112207D-04 -0.84871076D-04 -0.13733742D-03 -0.18053388D-03 -0.15484286D-03
 -0.52943405D-04 -0.73482697D-04 -0.32787836D-04  0.96822919D-04 -0.40109054D-03
 -0.30901864D-03 -0.13567583D-03 -0.53738646D-03 -0.41402730D-03 -0.18178028D-03
  0.73807588D+00  0.56864768D+00  0.24966696D+00  0.63675436D-04 -0.16576259D-04
 -0.35034271D-04  0.41687729D-01 -0.56535483D-05  0.15559147D-05 -0.14125459D-04
 -0.13520766D-04  0.28432228D-01  0.12049551D-01 -0.10490052D-04 -0.17793113D-04
 -0.20256830D-04 -0.95281607D-05 -0.51386354D-05 -0.17200489D-04  0.12962258D-01
  0.13530831D-04  0.24961742D-04  0.40295991D-04  0.52453408D-04  0.44758588D-04
  0.15454065D-04  0.21088612D-04  0.97197219D-05 -0.27255115D-04  0.22542154D-03
  0.17283894D-03  0.86258744D-04  0.16443149D-03  0.12607564D-03  0.62920581D-04
  0.36665097D+00  0.28112471D+00  0.14030093D+00 -0.47860453D-06 -0.22060016D-05
  0.17621430D-04  0.20971724D-01  0.54272221D-06 -0.64958805D-05  0.16659313D-04
 -0.29360874D-05 -0.83360433D-03 -0.33722649D-02  0.34992848D-05  0.64405520D-05
  0.10422029D-04  0.13700049D-04  0.11750452D-04  0.40176792D-05 -0.84456082D-05
 -0.37684139D-05  0.11128177D-04  0.35685022D-03  0.27493386D-03  0.12071077D-03
  0.10676563D-03  0.82257165D-04  0.36115326D-04  0.61670458D+00  0.47513764D+00
  0.20861101D+00 -0.33282105D-04  0.13030907D-04  0.14493732D-04  0.28939203D-01
  0.18088815D-04  0.21420183D-05  0.61862832D-05 -0.10235346D-04  0.15068328D-01
 -0.27548478D-01 -0.26876987D-06 -0.49582794D-06 -0.80042003D-06 -0.10419090D-05
 -0.88906288D-06 -0.30697205D-06  0.89318618D-06  0.41166870D-06 -0.11543620D-05
 -0.21193396D-03 -0.16249752D-03 -0.81097651D-04  0.14497779D-03  0.11115977D-03
  0.55476516D-04  0.41343131D+00  0.31699290D+00  0.15820167D+00  0.10242337D-04
 -0.11924518D-04 -0.34919454D-05  0.20454429D-01  0.15645976D-06 -0.64723587D-04
  0.64219014D-04 -0.84018044D-05 -0.32177533D-02 -0.25670177D-01  0.34077451D-01
  0.57801807D-01  0.65805315D-01  0.24084767D-01 -0.72282834D-02  0.70001990D-02
 -0.29408123D-02 -0.34026545D-01 -0.57715460D-01 -0.65707011D-01 -0.24064307D-01
  0.72148428D-02 -0.70236058D-02 -0.28974746D-02 -0.65957178D-04 -0.11187586D-03
 -0.12736671D-03 -0.34062157D-04  0.92404281D-05  0.30328026D-04  0.91545046D-02
MO   11     MO 0.0        OCC NO =    2.0000000  ORB. ENERGY =   -0.462999
  0.35376713D-01  0.65112037D-01  0.10536357D+00  0.13850336D+00  0.11879352D+00
  0.40617523D-01  0.57761256D-01  0.25772960D-01 -0.76107896D-01  0.76175798D+00
  0.58689345D+00  0.25767784D+00  0.12390650D+00  0.95463275D-01  0.41913520D-01
 -0.95279513D-04 -0.73407728D-04 -0.32229947D-04 -0.46472920D-01  0.40793339D-01
  0.75518367D-02 -0.24782349D-05  0.21848102D-01 -0.63333776D-02 -0.22485132D-02
  0.45508126D-02 -0.15213859D-04  0.45728590D-06  0.95065166D-02  0.16124851D-01
  0.18357573D-01  0.64788929D-02  0.11267466D-01  0.97030828D-02  0.31023539D-05
  0.12865608D-01  0.23734535D-01  0.38314899D-01  0.49874614D-01  0.42558098D-01
  0.14694289D-01  0.25146832D-01  0.11590152D-01 -0.32499995D-01  0.19601616D-01
  0.15029276D-01  0.75006621D-02 -0.29299075D+00 -0.22464672D+00 -0.11211446D+00
  0.12053663D-03  0.92419840D-04  0.46123977D-04 -0.12435875D-01  0.35226614D-03
 -0.91745778D-02  0.23597977D-05 -0.32765132D-02  0.11254531D-01  0.25923484D-02
 -0.17781403D-01  0.38885797D-05  0.69085900D-05 -0.58893781D-01 -0.10839600D+00
 -0.17540518D+00 -0.23057502D+00 -0.19776286D+00 -0.67618480D-01 -0.90890453D-01
 -0.40555143D-01  0.11975988D+00 -0.58189747D+00 -0.44832063D+00 -0.19683690D+00
  0.65391129D+00  0.50380340D+00  0.22119683D+00  0.34322970D-03  0.26443998D-03
  0.11610339D-03  0.83421894D-01 -0.24992877D-01  0.26250448D-01  0.18631416D-04
 -0.13686804D-01 -0.16587274D-01 -0.50671012D-03  0.22151796D-01  0.11445479D-04
 -0.15270198D-04  0.34110053D-02  0.62926388D-02  0.10158270D-01  0.13223049D-01
  0.11283252D-01  0.38958358D-02  0.79083836D-02  0.36449668D-02 -0.10220867D-01
 -0.43232274D-01 -0.33147765D-01 -0.16543058D-01 -0.38820567D+00 -0.29765148D+00
 -0.14854895D+00  0.20908729D-03  0.16031488D-03  0.80008359D-04 -0.14408704D-02
 -0.61416298D-02 -0.24593658D-01  0.23986615D-04 -0.23177168D-02 -0.96602367D-02
  0.94132830D-02 -0.56893004D-02  0.10750018D-04  0.11035631D-03  0.17252390D-01