 b3lyp/6-31G** opted&produced                            
GAUSSIAN             15 MOL ORBITALS    140 PRIMITIVES        8 NUCLEI
  O    1    (CENTRE  1)  -2.29581158 -2.51031128  0.00000000  CHARGE =  8.0
  C    2    (CENTRE  2)  -0.27708899 -1.41445316  0.00000000  CHARGE =  6.0
  C    3    (CENTRE  3)   0.00000000  1.35873651  0.00000000  CHARGE =  6.0
  H    4    (CENTRE  4)   1.54151904 -2.47439473  0.00000000  CHARGE =  1.0
  H    5    (CENTRE  5)  -1.73768516  2.45441935  0.00000000  CHARGE =  1.0
  C    6    (CENTRE  6)   2.28303868  2.44240108  0.00000000  CHARGE =  6.0
  H    7    (CENTRE  7)   3.99537758  1.30451778  0.00000000  CHARGE =  1.0
  H    8    (CENTRE  8)   2.53158300  4.47784118  0.00000000  CHARGE =  1.0
CENTRE ASSIGNMENTS    1  1  1  1  1  1  1  1  1  1  1  1  1  1  1  1  1  1  1  1
CENTRE ASSIGNMENTS    1  1  1  1  1  1  1  1  2  2  2  2  2  2  2  2  2  2  2  2
CENTRE ASSIGNMENTS    2  2  2  2  2  2  2  2  2  2  2  2  2  2  2  2  3  3  3  3
CENTRE ASSIGNMENTS    3  3  3  3  3  3  3  3  3  3  3  3  3  3  3  3  3  3  3  3
CENTRE ASSIGNMENTS    3  3  3  3  4  4  4  4  4  4  4  5  5  5  5  5  5  5  6  6
CENTRE ASSIGNMENTS    6  6  6  6  6  6  6  6  6  6  6  6  6  6  6  6  6  6  6  6
CENTRE ASSIGNMENTS    6  6  6  6  6  6  7  7  7  7  7  7  7  8  8  8  8  8  8  8
TYPE ASSIGNMENTS      1  1  1  1  1  1  1  1  1  2  2  2  3  3  3  4  4  4  1  2
TYPE ASSIGNMENTS      3  4  5  6  7  8  9 10  1  1  1  1  1  1  1  1  1  2  2  2
TYPE ASSIGNMENTS      3  3  3  4  4  4  1  2  3  4  5  6  7  8  9 10  1  1  1  1
TYPE ASSIGNMENTS      1  1  1  1  1  2  2  2  3  3  3  4  4  4  1  2  3  4  5  6
TYPE ASSIGNMENTS      7  8  9 10  1  1  1  1  2  3  4  1  1  1  1  2  3  4  1  1
TYPE ASSIGNMENTS      1  1  1  1  1  1  1  2  2  2  3  3  3  4  4  4  1  2  3  4
TYPE ASSIGNMENTS      5  6  7  8  9 10  1  1  1  1  2  3  4  1  1  1  1  2  3  4
EXPONENTS  0.5484672D+04 0.8252349D+03 0.1880470D+03 0.5296450D+02 0.1689757D+02
EXPONENTS  0.5799635D+01 0.1553962D+02 0.3599934D+01 0.1013762D+01 0.1553962D+02
EXPONENTS  0.3599934D+01 0.1013762D+01 0.1553962D+02 0.3599934D+01 0.1013762D+01
EXPONENTS  0.1553962D+02 0.3599934D+01 0.1013762D+01 0.2700058D+00 0.2700058D+00
EXPONENTS  0.2700058D+00 0.2700058D+00 0.8000000D+00 0.8000000D+00 0.8000000D+00
EXPONENTS  0.8000000D+00 0.8000000D+00 0.8000000D+00 0.3047525D+04 0.4573695D+03
EXPONENTS  0.1039487D+03 0.2921016D+02 0.9286663D+01 0.3163927D+01 0.7868272D+01
EXPONENTS  0.1881289D+01 0.5442493D+00 0.7868272D+01 0.1881289D+01 0.5442493D+00
EXPONENTS  0.7868272D+01 0.1881289D+01 0.5442493D+00 0.7868272D+01 0.1881289D+01
EXPONENTS  0.5442493D+00 0.1687145D+00 0.1687145D+00 0.1687145D+00 0.1687145D+00
EXPONENTS  0.8000000D+00 0.8000000D+00 0.8000000D+00 0.8000000D+00 0.8000000D+00
EXPONENTS  0.8000000D+00 0.3047525D+04 0.4573695D+03 0.1039487D+03 0.2921016D+02
EXPONENTS  0.9286663D+01 0.3163927D+01 0.7868272D+01 0.1881289D+01 0.5442493D+00
EXPONENTS  0.7868272D+01 0.1881289D+01 0.5442493D+00 0.7868272D+01 0.1881289D+01
EXPONENTS  0.5442493D+00 0.7868272D+01 0.1881289D+01 0.5442493D+00 0.1687145D+00
EXPONENTS  0.1687145D+00 0.1687145D+00 0.1687145D+00 0.8000000D+00 0.8000000D+00
EXPONENTS  0.8000000D+00 0.8000000D+00 0.8000000D+00 0.8000000D+00 0.1873114D+02
EXPONENTS  0.2825394D+01 0.6401217D+00 0.1612778D+00 0.1100000D+01 0.1100000D+01
EXPONENTS  0.1100000D+01 0.1873114D+02 0.2825394D+01 0.6401217D+00 0.1612778D+00
EXPONENTS  0.1100000D+01 0.1100000D+01 0.1100000D+01 0.3047525D+04 0.4573695D+03
EXPONENTS  0.1039487D+03 0.2921016D+02 0.9286663D+01 0.3163927D+01 0.7868272D+01
EXPONENTS  0.1881289D+01 0.5442493D+00 0.7868272D+01 0.1881289D+01 0.5442493D+00
EXPONENTS  0.7868272D+01 0.1881289D+01 0.5442493D+00 0.7868272D+01 0.1881289D+01
EXPONENTS  0.5442493D+00 0.1687145D+00 0.1687145D+00 0.1687145D+00 0.1687145D+00
EXPONENTS  0.8000000D+00 0.8000000D+00 0.8000000D+00 0.8000000D+00 0.8000000D+00
EXPONENTS  0.8000000D+00 0.1873114D+02 0.2825394D+01 0.6401217D+00 0.1612778D+00
EXPONENTS  0.1100000D+01 0.1100000D+01 0.1100000D+01 0.1873114D+02 0.2825394D+01
EXPONENTS  0.6401217D+00 0.1612778D+00 0.1100000D+01 0.1100000D+01 0.1100000D+01
MO    1     MO 0.0        OCC NO =    2.0000000  ORB. ENERGY =  -19.148310
  0.82569495D+00  0.15197195D+01  0.24591930D+01  0.32326780D+01  0.27726492D+01
  0.94801583D+00 -0.15854248D-01 -0.70741347D-02  0.20890014D-01  0.32234476D-02
  0.24834926D-02  0.10903870D-02  0.17462631D-02  0.13454016D-02  0.59070377D-03
  0.00000000D+00  0.00000000D+00  0.00000000D+00  0.37533473D-02  0.40320525D-03
  0.24916790D-03  0.00000000D+00 -0.85841825D-02 -0.89046115D-02 -0.90791836D-02
  0.55184018D-03  0.00000000D+00  0.00000000D+00  0.48872702D-05  0.90160592D-05
  0.14554715D-04  0.18945914D-04  0.16166583D-04  0.55819326D-05 -0.20376498D-03
 -0.93915095D-04  0.26334773D-03  0.15957859D-04  0.12235474D-04  0.61063593D-05
  0.54785415D-04  0.42005982D-04  0.20963929D-04  0.00000000D+00  0.00000000D+00
  0.00000000D+00 -0.63913816D-03  0.48388298D-03  0.15757136D-03  0.00000000D+00
 -0.78375850D-03 -0.26580169D-03 -0.20525926D-04 -0.84818841D-03  0.00000000D+00
  0.00000000D+00 -0.51919673D-05 -0.95781658D-05 -0.15462130D-04 -0.20127098D-04
 -0.17174490D-04 -0.59299385D-05  0.61989539D-05  0.28570922D-05 -0.80115847D-05
  0.41866182D-04  0.32100333D-04  0.16020316D-04 -0.37511014D-04 -0.28761067D-04
 -0.14353788D-04  0.00000000D+00  0.00000000D+00  0.00000000D+00  0.10344120D-03
 -0.10324408D-03 -0.13239033D-04  0.00000000D+00 -0.37965308D-04  0.72894825D-05
 -0.16194530D-04 -0.13818442D-03  0.00000000D+00  0.00000000D+00 -0.14895396D-04
 -0.25265410D-04 -0.28763777D-04 -0.97573456D-04  0.22596084D-04 -0.60529533D-04
  0.00000000D+00 -0.12236965D-04 -0.20756209D-04 -0.23630211D-04 -0.62872759D-04
 -0.67488610D-04 -0.13741033D-04  0.00000000D+00  0.14261556D-04  0.26309786D-04
  0.42472153D-04  0.55286124D-04  0.47175749D-04  0.16288653D-04 -0.48864435D-04
 -0.22521574D-04  0.63152843D-04 -0.47917911D-04 -0.36740415D-04 -0.18336042D-04
 -0.11395307D-03 -0.87371986D-04 -0.43604744D-04  0.00000000D+00  0.00000000D+00
  0.00000000D+00 -0.93838206D-05  0.14571850D-04  0.95676722D-04  0.00000000D+00
  0.44157509D-04  0.52042664D-05  0.83009865D-04 -0.27842811D-04  0.00000000D+00
  0.00000000D+00  0.19558977D-04  0.33175727D-04  0.37769392D-04  0.30326015D-05
 -0.41158608D-05 -0.42426250D-04  0.00000000D+00 -0.92970389D-05 -0.15769538D-04
 -0.17953061D-04 -0.61432880D-04 -0.10997749D-04  0.18090318D-04  0.00000000D+00
MO    2     MO 0.0        OCC NO =    2.0000000  ORB. ENERGY =  -10.278130
 -0.98838499D-04 -0.18191560D-03 -0.29437378D-03 -0.38696257D-03 -0.33189555D-03
 -0.11348073D-03 -0.31313248D-03 -0.13971910D-03  0.41259238D-03 -0.76351805D-04
 -0.58824949D-04 -0.25827321D-04 -0.13756841D-03 -0.10598904D-03 -0.46534899D-04
  0.00000000D+00  0.00000000D+00  0.00000000D+00 -0.95085485D-03 -0.56232205D-03
 -0.24447833D-03  0.00000000D+00 -0.21666985D-03  0.23400180D-03  0.54379839D-03
 -0.56562718D-03  0.00000000D+00  0.00000000D+00  0.53250604D+00  0.98236967D+00
  0.15858492D+01  0.20643045D+01  0.17614748D+01  0.60819491D+00 -0.19464741D-01
 -0.89712813D-02  0.25156409D-01 -0.94330620D-03 -0.72326736D-03 -0.36096110D-03
 -0.46907653D-03 -0.35965813D-03 -0.17949461D-03  0.00000000D+00  0.00000000D+00
  0.00000000D+00 -0.16186292D-02 -0.47045561D-03 -0.36704807D-03  0.00000000D+00
 -0.95062191D-02 -0.10101009D-01 -0.10793901D-01  0.92580872D-03  0.00000000D+00
  0.00000000D+00  0.11493840D-02  0.21203890D-02  0.34229653D-02  0.44556838D-02
  0.38020430D-02  0.13127541D-02  0.26856382D-04  0.12378082D-04 -0.34709434D-04
 -0.50672071D-04 -0.38852130D-04 -0.19389936D-04  0.40159850D-03  0.30792026D-03
  0.15367379D-03  0.00000000D+00  0.00000000D+00  0.00000000D+00  0.63185355D-03
  0.94147105D-04 -0.27807157D-03  0.00000000D+00 -0.31230888D-03 -0.65896295D-03
 -0.20179653D-03 -0.63131631D-04  0.00000000D+00  0.00000000D+00 -0.61175547D-04
 -0.10376531D-03 -0.11813313D-03  0.40673518D-03  0.43029664D-03  0.46433592D-04
  0.00000000D+00  0.18879194D-05  0.32022686D-05  0.36456697D-05  0.82964544D-04
  0.14858505D-03 -0.56729867D-04  0.00000000D+00 -0.31411296D-04 -0.57947708D-04
 -0.93545568D-04 -0.12176853D-03 -0.10390531D-03 -0.35876007D-04  0.10373311D-03
  0.47810493D-04 -0.13406561D-03  0.31738191D-04  0.24334832D-04  0.12144787D-04
  0.18813465D-03  0.14424972D-03  0.71990718D-04  0.00000000D+00  0.00000000D+00
  0.00000000D+00 -0.85766568D-05 -0.31924347D-04 -0.11874250D-03  0.00000000D+00
  0.90881894D-04  0.66176674D-05 -0.16378371D-03  0.64815864D-04  0.00000000D+00
  0.00000000D+00 -0.28665340D-04 -0.48621842D-04 -0.55354248D-04 -0.56984305D-05
  0.44672498D-04  0.52364115D-04  0.00000000D+00  0.12218207D-04  0.20724392D-04
  0.23593988D-04  0.10492484D-03 -0.17206654D-04 -0.44814654D-04  0.00000000D+00
MO    3     MO 0.0        OCC NO =    2.0000000  ORB. ENERGY =  -10.221542
 -0.35624973D-04 -0.65568968D-04 -0.10610297D-03 -0.13947532D-03 -0.11962717D-03
 -0.40902561D-04  0.11748745D-03  0.52422670D-04 -0.15480485D-03 -0.41856632D-04
 -0.32248278D-04 -0.14158731D-04 -0.47093874D-04 -0.36283291D-04 -0.15930319D-04
  0.00000000D+00  0.00000000D+00  0.00000000D+00  0.28460474D-03  0.59584691D-04
  0.59178691D-04  0.00000000D+00 -0.13916468D-03 -0.10049397D-03 -0.14918251D-03
  0.57189591D-04  0.00000000D+00  0.00000000D+00 -0.61689082D-04 -0.11380431D-03
 -0.18371544D-03 -0.23914292D-03 -0.20406109D-03 -0.70457389D-04  0.83543586D-04
  0.38505162D-04 -0.10797249D-03 -0.26205656D-04 -0.20092835D-04 -0.10027733D-04
 -0.13740692D-04 -0.10535491D-04 -0.52579486D-05  0.00000000D+00  0.00000000D+00
  0.00000000D+00  0.45707080D-05  0.10023698D-03  0.48190128D-04  0.00000000D+00
 -0.40965920D-04  0.40564438D-04 -0.79229403D-04  0.76184917D-04  0.00000000D+00
  0.00000000D+00  0.21992866D-01  0.40572543D-01  0.65496665D-01  0.85257197D-01
  0.72750121D-01  0.25118868D-01 -0.62288891D-03 -0.28708893D-03  0.80502732D-03
 -0.46458134D-03 -0.35621151D-03 -0.17777451D-03 -0.25729821D-03 -0.19727995D-03
 -0.98456521D-04  0.00000000D+00  0.00000000D+00  0.00000000D+00  0.73194515D-03
  0.24268777D-03  0.14665226D-03  0.00000000D+00 -0.85192664D-03 -0.76163163D-03
 -0.58949055D-03  0.14770772D-05  0.00000000D+00  0.00000000D+00 -0.13465160D-04
 -0.22839459D-04 -0.26001917D-04 -0.29389401D-04 -0.46106486D-04 -0.31386087D-04
  0.00000000D+00 -0.13005555D-04 -0.22059882D-04 -0.25114396D-04  0.12782080D-04
  0.14363011D-03 -0.85860341D-04  0.00000000D+00  0.53198663D+00  0.98141146D+00
  0.15843024D+01  0.20622910D+01  0.17597566D+01  0.60760168D+00 -0.19604552D-01
 -0.90357203D-02  0.25337103D-01  0.47200635D-04  0.36190453D-04  0.18061572D-04
 -0.39896761D-04 -0.30590306D-04 -0.15266707D-04  0.00000000D+00  0.00000000D+00
  0.00000000D+00 -0.23807278D-02  0.14887584D-03  0.94598451D-04  0.00000000D+00
 -0.10123461D-01 -0.10219242D-01 -0.10849559D-01  0.20649072D-03  0.00000000D+00
  0.00000000D+00 -0.84795923D-04 -0.14382994D-03 -0.16374530D-03  0.37171096D-03
  0.22571495D-03 -0.29946140D-03  0.00000000D+00 -0.96014108D-04 -0.16285810D-03
 -0.18540819D-03  0.35173966D-03 -0.80935920D-04  0.38037091D-03  0.00000000D+00
MO    4     MO 0.0        OCC NO =    2.0000000  ORB. ENERGY =  -10.211253
  0.17129890D-04  0.31528142D-04  0.51018486D-04  0.67065227D-04  0.57521456D-04
  0.19667563D-04 -0.32490748D-04 -0.14497308D-04  0.42810746D-04  0.48333344D-04
  0.37238236D-04  0.16349591D-04  0.86756306D-04  0.66841057D-04  0.29346824D-04
  0.00000000D+00  0.00000000D+00  0.00000000D+00 -0.15772037D-03 -0.21641997D-04
 -0.95707034D-04  0.00000000D+00  0.12432492D-03  0.10512063D-03  0.12839545D-05
 -0.37836386D-04  0.00000000D+00  0.00000000D+00 -0.13020273D-02 -0.24019862D-02
 -0.38775505D-02 -0.50474186D-02 -0.43069714D-02 -0.14870937D-02  0.15049608D-03
  0.69363508D-04 -0.19450252D-03 -0.24256049D-04 -0.18598000D-04 -0.92817055D-05
 -0.33763435D-03 -0.25887660D-03 -0.12919757D-03  0.00000000D+00  0.00000000D+00
  0.00000000D+00  0.97476704D-03  0.37888717D-04  0.33601638D-03  0.00000000D+00
 -0.19746612D-03 -0.59442365D-03 -0.14812950D-03  0.59931393D-04  0.00000000D+00
  0.00000000D+00  0.53200868D+00  0.98145213D+00  0.15843680D+01  0.20623764D+01
  0.17598296D+01  0.60762685D+00 -0.19812202D-01 -0.91314258D-02  0.25605471D-01
  0.27017496D-03  0.20715303D-03  0.10338388D-03 -0.68954646D-04 -0.52870049D-04
 -0.26385860D-04  0.00000000D+00  0.00000000D+00  0.00000000D+00 -0.29687270D-02
 -0.30017024D-03  0.23331176D-03  0.00000000D+00 -0.10002120D-01 -0.10323478D-01
 -0.10719618D-01  0.12133344D-03  0.00000000D+00  0.00000000D+00 -0.21087348D-04
 -0.35768133D-04 -0.40720755D-04 -0.19507238D-04 -0.94798319D-04  0.23056354D-04
  0.00000000D+00 -0.97251859D-04 -0.16495756D-03 -0.18779835D-03  0.26338658D-03
 -0.31295572D-03  0.23184033D-03  0.00000000D+00 -0.22260350D-01 -0.41065998D-01
 -0.66293254D-01 -0.86294120D-01 -0.73634929D-01 -0.25424371D-01  0.10237755D-02
  0.47185721D-03 -0.13231369D-02  0.42074731D-03  0.32260235D-03  0.16100118D-03
  0.23232980D-03  0.17813576D-03  0.88902228D-04  0.00000000D+00  0.00000000D+00
  0.00000000D+00  0.11109831D-02 -0.25474761D-03 -0.27265342D-03  0.00000000D+00
 -0.62232714D-04  0.65924443D-04  0.31162938D-03 -0.78021404D-04  0.00000000D+00
  0.00000000D+00 -0.20381745D-04 -0.34571297D-04 -0.39358200D-04 -0.88219294D-04
 -0.13446845D-03  0.97235879D-04  0.00000000D+00  0.78387020D-05  0.13295922D-04
  0.15136937D-04  0.36555393D-04 -0.18148979D-04 -0.17263875D-03  0.00000000D+00
MO    5     MO 0.0        OCC NO =    2.0000000  ORB. ENERGY =   -1.042532
 -0.16220968D+00 -0.29855241D+00 -0.48311415D+00 -0.63506708D+00 -0.54469334D+00
 -0.18623990D+00 -0.26210741D+00 -0.11695182D+00  0.34536028D+00  0.44411787D+00
  0.34216888D+00  0.15023057D+00  0.24656259D+00  0.18996319D+00  0.83404070D-01
  0.00000000D+00  0.00000000D+00  0.00000000D+00  0.10773410D+00  0.13855866D-01
  0.84266564D-02  0.00000000D+00  0.56561558D-02 -0.66089866D-02 -0.74769638D-02
  0.21158433D-01  0.00000000D+00  0.00000000D+00 -0.63799883D-01 -0.11769833D+00
 -0.19000159D+00 -0.24732562D+00 -0.21104340D+00 -0.72868214D-01 -0.92601284D-01
 -0.42679847D-01  0.11967875D+00 -0.21224018D+00 -0.16273231D+00 -0.81214828D-01
 -0.10469767D+00 -0.80275536D-01 -0.40063118D-01  0.00000000D+00  0.00000000D+00
  0.00000000D+00  0.12391479D-01  0.55636194D-02  0.86615959D-03  0.00000000D+00
  0.12968651D-01 -0.12244549D-01 -0.21841710D-01  0.41323446D-01  0.00000000D+00
  0.00000000D+00 -0.10605600D-01 -0.19565261D-01 -0.31584398D-01 -0.41113502D-01
 -0.35082225D-01 -0.12113049D-01 -0.14355831D-01 -0.66165892D-02  0.18553607D-01
 -0.10486746D-01 -0.80405718D-02 -0.40128089D-02 -0.35142479D-01 -0.26945024D-01
 -0.13447456D-01  0.00000000D+00  0.00000000D+00  0.00000000D+00  0.38889507D-02
 -0.22320989D-02 -0.18325149D-02  0.00000000D+00 -0.10326142D-02  0.79161392D-02
 -0.26336998D-02  0.63454323D-02  0.00000000D+00  0.00000000D+00  0.63273786D-02
  0.10732432D-01  0.12218494D-01 -0.18951664D-02 -0.10899785D-01  0.26193916D-02
  0.00000000D+00  0.16433617D-02  0.27874525D-02  0.31734161D-02 -0.17477105D-03
  0.13198780D-02 -0.15260900D-02  0.00000000D+00 -0.19856607D-02 -0.36631563D-02
 -0.59134701D-02 -0.76975810D-02 -0.65683598D-02 -0.22678968D-02 -0.38602598D-02
 -0.17791902D-02  0.49890351D-02 -0.56726415D-02 -0.43494217D-02 -0.21706663D-02
 -0.69219014D-02 -0.53072749D-02 -0.26487022D-02  0.00000000D+00  0.00000000D+00
  0.00000000D+00  0.17562646D-02 -0.47790957D-03  0.20818482D-02  0.00000000D+00
 -0.16709267D-03  0.32681223D-03  0.26457066D-03  0.83560942D-03  0.00000000D+00
  0.00000000D+00  0.70548936D-03  0.11966435D-02  0.13623363D-02  0.56206777D-03
 -0.73945340D-03 -0.24420616D-03  0.00000000D+00 -0.41087677D-04 -0.69692476D-04
 -0.79342421D-04 -0.15350705D-02  0.58999133D-04  0.32418272D-03  0.00000000D+00
MO    6     MO 0.0        OCC NO =    2.0000000  ORB. ENERGY =   -0.803946
  0.32421464D-01  0.59672802D-01  0.96561858D-01  0.12693326D+00  0.10886992D+00
  0.37224476D-01  0.55849695D-01  0.24920025D-01 -0.73589168D-01 -0.34547995D-01
 -0.26617367D-01 -0.11686458D-01  0.27261029D-01  0.21003153D-01  0.92215154D-02
  0.00000000D+00  0.00000000D+00  0.00000000D+00 -0.21075718D-01  0.94873429D-03
  0.16683747D-02  0.00000000D+00 -0.22647472D-03  0.18058019D-02 -0.68178402D-03
  0.27533434D-02  0.00000000D+00  0.00000000D+00 -0.27958779D-01 -0.51578488D-01
 -0.83263673D-01 -0.10838456D+00 -0.92484743D-01 -0.31932759D-01 -0.41583181D-01
 -0.19165650D-01  0.53742484D-01  0.96011769D-01  0.73615734D-01  0.36739411D-01
  0.14776254D+00  0.11329494D+00  0.56542116D-01  0.00000000D+00  0.00000000D+00
  0.00000000D+00  0.13740944D-01  0.41355645D-02  0.35925360D-02  0.00000000D+00
 -0.90119099D-02  0.11360488D-01 -0.48528775D-02 -0.41333539D-02  0.00000000D+00
  0.00000000D+00 -0.86376401D-01 -0.15934759D+00 -0.25723642D+00 -0.33484539D+00
 -0.28572418D+00 -0.98653693D-01 -0.12551250D+00 -0.57848597D-01  0.16221350D+00
  0.11851916D+00  0.90872977D-01  0.45351984D-01  0.73768235D-02  0.56560804D-02
  0.28227805D-02  0.00000000D+00  0.00000000D+00  0.00000000D+00  0.39248869D-01
  0.39480418D-04  0.51093647D-03  0.00000000D+00  0.14566215D-02 -0.29098000D-02
 -0.17793451D-01  0.93853862D-02  0.00000000D+00  0.00000000D+00  0.75243673D-02
  0.12762751D-01  0.14529941D-01  0.11763908D-02 -0.30803603D-02  0.46041901D-02
  0.00000000D+00  0.16657809D-01  0.28254797D-01  0.32167087D-01  0.21121202D-02
  0.12909285D-01 -0.63906391D-02  0.00000000D+00 -0.77726418D-01 -0.14339006D+00
 -0.23147602D+00 -0.30131300D+00 -0.25711093D+00 -0.88774226D-01 -0.11243644D+00
 -0.51821854D-01  0.14531389D+00 -0.11845237D+00 -0.90821763D-01 -0.45326425D-01
 -0.69174750D-01 -0.53038810D-01 -0.26470084D-01  0.00000000D+00  0.00000000D+00
  0.00000000D+00  0.38769989D-01 -0.12382471D-02 -0.15898536D-02  0.00000000D+00
  0.29389696D-02 -0.57174438D-02 -0.16830674D-01  0.14050339D-01  0.00000000D+00
  0.00000000D+00  0.16659954D-01  0.28258435D-01  0.32171230D-01  0.29572445D-02
 -0.12902250D-01  0.58331862D-02  0.00000000D+00  0.15476615D-01  0.26251268D-01
  0.29886141D-01  0.30958804D-02 -0.33381651D-02 -0.12921975D-01  0.00000000D+00
MO    7     MO 0.0        OCC NO =    2.0000000  ORB. ENERGY =   -0.649170
 -0.54454908D-01 -0.10022610D+00 -0.16218475D+00 -0.21319639D+00 -0.18285731D+00
 -0.62522018D-01 -0.92819866D-01 -0.41416043D-01  0.12230213D+00 -0.12151428D+00
 -0.93620202D-01 -0.41104311D-01 -0.14512538D+00 -0.11181128D+00 -0.49091174D-01
  0.00000000D+00  0.00000000D+00  0.00000000D+00  0.48300769D-01 -0.71232527D-02
 -0.73795622D-02  0.00000000D+00 -0.65054347D-02 -0.51057139D-02  0.16241464D-02
 -0.11037678D-01  0.00000000D+00  0.00000000D+00  0.61153537D-01  0.11281634D+00
  0.18212055D+00  0.23706684D+00  0.20228956D+00  0.69845724D-01  0.96583260D-01
  0.44515136D-01 -0.12482509D+00 -0.14457260D+00 -0.11084910D+00 -0.55321471D-01
 -0.17672323D+00 -0.13550016D+00 -0.67624077D-01  0.00000000D+00  0.00000000D+00
  0.00000000D+00 -0.38346549D-01 -0.61989075D-02 -0.51939522D-02  0.00000000D+00
  0.13907623D-01 -0.44746959D-02  0.91314080D-02  0.19344273D-01  0.00000000D+00
  0.00000000D+00  0.31707823D-01  0.58494743D-01  0.94428652D-01  0.12291805D+00
  0.10488619D+00  0.36214682D-01  0.48527953D-01  0.22366489D-01 -0.62717970D-01
  0.15208619D+00  0.11661005D+00  0.58196585D-01  0.23835857D+00  0.18275823D+00
  0.91209165D-01  0.00000000D+00  0.00000000D+00  0.00000000D+00 -0.20052425D-01
  0.42350050D-02  0.51176505D-02  0.00000000D+00  0.13909650D-01 -0.11311082D-01
  0.55232947D-02  0.15006829D-01  0.00000000D+00  0.00000000D+00 -0.21162575D-01
 -0.35895732D-01 -0.40866022D-01 -0.62825020D-02  0.92268007D-02 -0.90724293D-02
  0.00000000D+00 -0.10191411D-01 -0.17286563D-01 -0.19680141D-01 -0.24496591D-02
 -0.25308825D-02  0.72740684D-02  0.00000000D+00 -0.71845335D-01 -0.13254061D+00
 -0.21396165D+00 -0.27851449D+00 -0.23765692D+00 -0.82057223D-01 -0.10774264D+00
 -0.49658486D-01  0.13924758D+00  0.60878146D-01  0.46677501D-01  0.23295344D-01
  0.83750345D-01  0.64214453D-01  0.32047512D-01  0.00000000D+00  0.00000000D+00
  0.00000000D+00  0.46285167D-01  0.27127422D-02  0.37731336D-02  0.00000000D+00
 -0.63617253D-02 -0.41479057D-02 -0.13582854D-01 -0.90788916D-02  0.00000000D+00
  0.00000000D+00  0.23273119D-01  0.39475614D-01  0.44941592D-01  0.78745973D-02
 -0.11357689D-01  0.10149915D-01  0.00000000D+00  0.29454191D-01  0.49959883D-01
  0.56877561D-01  0.10114714D-01 -0.16588047D-02 -0.17446555D-01  0.00000000D+00
MO    8     MO 0.0        OCC NO =    2.0000000  ORB. ENERGY =   -0.574203
 -0.31250611D-01 -0.57517806D-01 -0.93074667D-01 -0.12234926D+00 -0.10493825D+00
 -0.35880168D-01 -0.54237790D-01 -0.24200796D-01  0.71465276D-01 -0.32833763D+00
 -0.25296645D+00 -0.11106590D+00  0.14096335D+00  0.10860466D+00  0.47683295D-01
  0.00000000D+00  0.00000000D+00  0.00000000D+00  0.27624143D-01 -0.16612942D-01
  0.52934672D-02  0.00000000D+00 -0.13476280D-01  0.57383919D-02  0.18871008D-02
 -0.37859390D-03  0.00000000D+00  0.00000000D+00  0.46628712D-01  0.86020869D-01
  0.13886435D+00  0.18076013D+00  0.15424295D+00  0.53256382D-01  0.74206415D-01
  0.34201669D-01 -0.95905050D-01 -0.23526627D+00 -0.18038725D+00 -0.90025883D-01
  0.16100220D+00  0.12344627D+00  0.61608342D-01  0.00000000D+00  0.00000000D+00
  0.00000000D+00 -0.33381194D-01 -0.11623037D-01  0.20239512D-02  0.00000000D+00
  0.30113834D-02  0.98396590D-02  0.72113399D-02  0.63615519D-02  0.00000000D+00
  0.00000000D+00 -0.50929059D-01 -0.93954169D-01 -0.15167116D+00 -0.19743078D+00
 -0.16846805D+00 -0.58167968D-01 -0.77657638D-01 -0.35792335D-01  0.10036544D+00
 -0.17885755D+00 -0.13713663D+00 -0.68440787D-01  0.17155708D+00  0.13153909D+00
  0.65647225D-01  0.00000000D+00  0.00000000D+00  0.00000000D+00  0.38756813D-01
 -0.70738718D-02  0.41064794D-02  0.00000000D+00 -0.10877842D-02 -0.90387390D-02
 -0.82949056D-02 -0.10889488D-02  0.00000000D+00  0.00000000D+00 -0.38350843D-01
 -0.65050288D-01 -0.74057454D-01 -0.18554288D-01  0.13999178D-01 -0.96665819D-02
  0.00000000D+00  0.37463560D-01  0.63545288D-01  0.72344065D-01  0.17373296D-01
  0.15481467D-01 -0.86388673D-02  0.00000000D+00  0.24086861D-01  0.44435556D-01
  0.71732765D-01  0.93374746D-01  0.79676840D-01  0.27510498D-01  0.36491308D-01
  0.16818810D-01 -0.47161700D-01 -0.21474994D+00 -0.16465664D+00 -0.82175201D-01
  0.45603933D-01  0.34966203D-01  0.17450586D-01  0.00000000D+00  0.00000000D+00
  0.00000000D+00 -0.17840785D-01 -0.77570567D-02  0.30039480D-02  0.00000000D+00
  0.86544429D-02 -0.51928139D-02  0.45552094D-02  0.96314548D-02  0.00000000D+00
  0.00000000D+00 -0.26042753D-01 -0.44173438D-01 -0.50289898D-01 -0.12786200D-01
  0.85655088D-02 -0.53704565D-02  0.00000000D+00 -0.76929757D-02 -0.13048743D-01
 -0.14855532D-01 -0.38149554D-02 -0.40595616D-02  0.47180294D-02  0.00000000D+00
MO    9     MO 0.0        OCC NO =    2.0000000  ORB. ENERGY =   -0.477561
 -0.83673537D-02 -0.15400397D-01 -0.24920750D-01 -0.32759024D-01 -0.28097224D-01
 -0.96069181D-02 -0.11063743D-01 -0.49366206D-02  0.14577907D-01 -0.41111124D+00
 -0.31673905D+00 -0.13906550D+00  0.51935666D+00  0.40013630D+00  0.17568139D+00
  0.00000000D+00  0.00000000D+00  0.00000000D+00  0.14483401D-01 -0.18238244D-01
  0.27024289D-01  0.00000000D+00 -0.16594147D-01  0.11401239D-01 -0.18455426D-02
  0.16163339D-01  0.00000000D+00  0.00000000D+00  0.47760704D-02  0.88109173D-02
  0.14223552D-01  0.18514839D-01  0.15798746D-01  0.54549272D-02  0.66626367D-02
  0.30708032D-02 -0.86108526D-02 -0.18705430D+00 -0.14342137D+00 -0.71577317D-01
  0.38684640D+00  0.29660929D+00  0.14802882D+00  0.00000000D+00  0.00000000D+00
  0.00000000D+00 -0.85817660D-02 -0.69012462D-02  0.13862503D-01  0.00000000D+00
 -0.16820474D-02 -0.10783313D-02  0.14964771D-02  0.10718465D-02  0.00000000D+00
  0.00000000D+00  0.69638994D-02  0.12847035D-01  0.20739097D-01  0.26996143D-01
  0.23035857D-01  0.79537280D-02  0.99502959D-02  0.45860823D-02 -0.12859853D-01
 -0.79070172D-01 -0.60625993D-01 -0.30256619D-01 -0.33927502D+00 -0.26013457D+00
 -0.12982538D+00  0.00000000D+00  0.00000000D+00  0.00000000D+00 -0.32805819D-02
 -0.40667234D-02 -0.15557194D-01  0.00000000D+00 -0.55519085D-03  0.38129625D-02
  0.10826750D-02  0.11256022D-02  0.00000000D+00  0.00000000D+00 -0.32455996D-01
 -0.55051513D-01 -0.62674201D-01 -0.19988304D-01  0.11489413D-01 -0.60524231D-03
  0.00000000D+00 -0.13324608D-01 -0.22601056D-01 -0.25730504D-01 -0.71811393D-02
 -0.90385696D-02 -0.47263228D-02  0.00000000D+00 -0.47200493D-02 -0.87075693D-02
 -0.14056717D-01 -0.18297669D-01 -0.15613434D-01 -0.53909435D-02 -0.69663657D-02
 -0.32107916D-02  0.90033947D-02  0.34627054D+00  0.26549829D+00  0.13250225D+00
 -0.16774560D+00 -0.12861669D+00 -0.64188741D-01  0.00000000D+00  0.00000000D+00
  0.00000000D+00  0.87474641D-02  0.13425684D-01 -0.79005484D-02  0.00000000D+00
 -0.36160756D-03  0.42001449D-02 -0.10204370D-02 -0.14356434D-01  0.00000000D+00
  0.00000000D+00  0.38130415D-01  0.64676402D-01  0.73631797D-01  0.23434248D-01
 -0.75911830D-02  0.69361918D-02  0.00000000D+00 -0.94083754D-02 -0.15958385D-01
 -0.18168058D-01 -0.60474875D-02  0.89236334D-02  0.23554213D-02  0.00000000D+00
MO   10     MO 0.0        OCC NO =    2.0000000  ORB. ENERGY =   -0.475314
  0.55779364D-01  0.10266381D+00  0.16612942D+00  0.21838177D+00  0.18730477D+00
  0.64042683D-01  0.85942462D-01  0.38347359D-01 -0.11324027D+00  0.65049625D+00
  0.50117229D+00  0.22004163D+00  0.51965371D+00  0.40036517D+00  0.17578187D+00
  0.00000000D+00  0.00000000D+00  0.00000000D+00 -0.78191931D-01  0.27058627D-01
  0.23289482D-01  0.00000000D+00  0.18111554D-01  0.11422110D-01  0.56172830D-03
  0.21635429D-01  0.00000000D+00  0.00000000D+00 -0.28943245D-01 -0.53394635D-01
 -0.86195497D-01 -0.11220093D+00 -0.95741254D-01 -0.33057154D-01 -0.51422946D-01
 -0.23700789D-01  0.66459486D-01 -0.17493147D+00 -0.13412636D+00 -0.66938453D-01
 -0.31127736D-01 -0.23866774D-01 -0.11911193D-01  0.00000000D+00  0.00000000D+00
  0.00000000D+00  0.22877735D-01 -0.73746665D-02  0.83159058D-03  0.00000000D+00
 -0.37992006D-02 -0.89888075D-02 -0.54462920D-02 -0.15433182D-01  0.00000000D+00
  0.00000000D+00  0.15984583D-01  0.29488434D-01  0.47603475D-01  0.61965581D-01
  0.52875342D-01  0.18256585D-01  0.25666347D-01  0.11829596D-01 -0.33171422D-01
 -0.35660846D+00 -0.27342475D+00 -0.13645811D+00 -0.10464836D-01 -0.80237721D-02
 -0.40044246D-02  0.00000000D+00  0.00000000D+00  0.00000000D+00 -0.57910151D-02
 -0.90703899D-02  0.33136459D-02  0.00000000D+00 -0.31437023D-02  0.13567434D-01
  0.18579326D-02  0.67290917D-03  0.00000000D+00  0.00000000D+00  0.43632279D-03
  0.74008603D-03  0.84256178D-03 -0.98771280D-03 -0.33745192D-02 -0.11438051D-02
  0.00000000D+00  0.20999137D-01  0.35618511D-01  0.40550416D-01  0.13718940D-01
  0.76899065D-03 -0.58932632D-02  0.00000000D+00 -0.35191638D-02 -0.64921701D-02
 -0.10480376D-01 -0.13642335D-01 -0.11641029D-01 -0.40193676D-02 -0.64896437D-02
 -0.29910709D-02  0.83872749D-02  0.23220688D+00  0.17804151D+00  0.88855190D-01
  0.40472485D+00  0.31031735D+00  0.15487010D+00  0.00000000D+00  0.00000000D+00
  0.00000000D+00 -0.52724106D-04  0.10696534D-01  0.18415151D-01  0.00000000D+00
 -0.82177317D-02  0.12593852D-01 -0.78017958D-04 -0.12323340D-01  0.00000000D+00
  0.00000000D+00 -0.61977569D-03 -0.10512569D-02 -0.11968188D-02 -0.15378721D-03
  0.63760282D-02  0.78894073D-02  0.00000000D+00  0.43833769D-01  0.74350369D-01
  0.84645267D-01  0.27531958D-01  0.20891936D-02 -0.11181914D-01  0.00000000D+00
MO   11     MO 0.0        OCC NO =    2.0000000  ORB. ENERGY =   -0.418861
  0.51754827D-01  0.95256510D-01  0.15414301D+00  0.20262531D+00  0.17379055D+00
  0.59421940D-01  0.78594688D-01  0.35068797D-01 -0.10355863D+00  0.11763435D+01
  0.90630929D+00  0.39791859D+00  0.73192627D+00  0.56390973D+00  0.24758675D+00
  0.00000000D+00  0.00000000D+00  0.00000000D+00 -0.69965933D-01  0.56969895D-01
  0.35226826D-01  0.00000000D+00  0.22416707D-01  0.86369011D-02 -0.12950006D-02
  0.30491044D-01  0.00000000D+00  0.00000000D+00 -0.77845863D-02 -0.14361042D-01
 -0.23183174D-01 -0.30177604D-01 -0.25750604D-01 -0.88910649D-02 -0.18310341D-01
 -0.84392196D-02  0.23664453D-01 -0.39759777D+00 -0.30485275D+00 -0.15214289D+00
 -0.13778603D+00 -0.10564559D+00 -0.52724554D-01  0.00000000D+00  0.00000000D+00
  0.00000000D+00 -0.38551771D-02 -0.26880369D-02 -0.82366046D-03  0.00000000D+00
  0.16546974D-02 -0.10708742D-01 -0.62365493D-02  0.34063552D-01  0.00000000D+00
  0.00000000D+00 -0.14561155D-02 -0.26862488D-02 -0.43364385D-02 -0.56447544D-02
 -0.48166792D-02 -0.16630836D-02 -0.37324771D-02 -0.17202953D-02  0.48238875D-02
  0.27411945D+00  0.21017740D+00  0.10489326D+00  0.90377563D-01  0.69295783D-01
  0.34583452D-01  0.00000000D+00  0.00000000D+00  0.00000000D+00 -0.51100097D-02
  0.30147388D-02  0.32814668D-02  0.00000000D+00  0.51801960D-02 -0.76419503D-02
  0.40776884D-03  0.22863978D-01  0.00000000D+00  0.00000000D+00 -0.25056747D-01
 -0.42500986D-01 -0.48385870D-01 -0.23318138D-01  0.99952385D-03 -0.82361407D-02
  0.00000000D+00 -0.19732153D-01 -0.33469467D-01 -0.38103805D-01 -0.19224557D-01
 -0.12130578D-02  0.62114705D-02  0.00000000D+00 -0.10296547D-01 -0.18995119D-01
 -0.30664012D-01 -0.39915432D-01 -0.34059910D-01 -0.11760069D-01 -0.17837271D-01
 -0.82211818D-02  0.23053052D-01 -0.20714786D+00 -0.15882784D+00 -0.79266223D-01
 -0.22493997D+00 -0.17246970D+00 -0.86074470D-01  0.00000000D+00  0.00000000D+00
  0.00000000D+00  0.14608310D-01 -0.94995454D-02 -0.80742169D-02  0.00000000D+00