 b3lyp/6-311g(d) opt                                     
GAUSSIAN             21 MOL ORBITALS    222 PRIMITIVES       12 NUCLEI
  C    1    (CENTRE  1)   0.00000000  2.63381616  0.00000000  CHARGE =  6.0
  C    2    (CENTRE  2)   2.28095170  1.31690808  0.00000000  CHARGE =  6.0
  C    3    (CENTRE  3)   2.28095170 -1.31690808  0.00000000  CHARGE =  6.0
  C    4    (CENTRE  4)   0.00000000 -2.63381616  0.00000000  CHARGE =  6.0
  C    5    (CENTRE  5)  -2.28095170 -1.31690808  0.00000000  CHARGE =  6.0
  C    6    (CENTRE  6)  -2.28095170  1.31690808  0.00000000  CHARGE =  6.0
  H    7    (CENTRE  7)   0.00000000  4.68505463  0.00000000  CHARGE =  1.0
  H    8    (CENTRE  8)   4.05737633  2.34252731  0.00000000  CHARGE =  1.0
  H    9    (CENTRE  9)   4.05737633 -2.34252731  0.00000000  CHARGE =  1.0
  H   10    (CENTRE 10)   0.00000000 -4.68505463  0.00000000  CHARGE =  1.0
  H   11    (CENTRE 11)  -4.05737633 -2.34252731  0.00000000  CHARGE =  1.0
  H   12    (CENTRE 12)  -4.05737633  2.34252731  0.00000000  CHARGE =  1.0
CENTRE ASSIGNMENTS    1  1  1  1  1  1  1  1  1  1  1  1  1  1  1  1  1  1  1  1
CENTRE ASSIGNMENTS    1  1  1  1  1  1  1  1  1  1  1  1  2  2  2  2  2  2  2  2
CENTRE ASSIGNMENTS    2  2  2  2  2  2  2  2  2  2  2  2  2  2  2  2  2  2  2  2
CENTRE ASSIGNMENTS    2  2  2  2  3  3  3  3  3  3  3  3  3  3  3  3  3  3  3  3
CENTRE ASSIGNMENTS    3  3  3  3  3  3  3  3  3  3  3  3  3  3  3  3  4  4  4  4
CENTRE ASSIGNMENTS    4  4  4  4  4  4  4  4  4  4  4  4  4  4  4  4  4  4  4  4
CENTRE ASSIGNMENTS    4  4  4  4  4  4  4  4  5  5  5  5  5  5  5  5  5  5  5  5
CENTRE ASSIGNMENTS    5  5  5  5  5  5  5  5  5  5  5  5  5  5  5  5  5  5  5  5
CENTRE ASSIGNMENTS    6  6  6  6  6  6  6  6  6  6  6  6  6  6  6  6  6  6  6  6
CENTRE ASSIGNMENTS    6  6  6  6  6  6  6  6  6  6  6  6  7  7  7  7  7  8  8  8
CENTRE ASSIGNMENTS    8  8  9  9  9  9  9 10 10 10 10 10 11 11 11 11 11 12 12 12
CENTRE ASSIGNMENTS   12 12
TYPE ASSIGNMENTS      1  1  1  1  1  1  1  1  1  2  2  2  3  3  3  4  4  4  1  2
TYPE ASSIGNMENTS      3  4  1  2  3  4  5  6  7  8  9 10  1  1  1  1  1  1  1  1
TYPE ASSIGNMENTS      1  2  2  2  3  3  3  4  4  4  1  2  3  4  1  2  3  4  5  6
TYPE ASSIGNMENTS      7  8  9 10  1  1  1  1  1  1  1  1  1  2  2  2  3  3  3  4
TYPE ASSIGNMENTS      4  4  1  2  3  4  1  2  3  4  5  6  7  8  9 10  1  1  1  1
TYPE ASSIGNMENTS      1  1  1  1  1  2  2  2  3  3  3  4  4  4  1  2  3  4  1  2
TYPE ASSIGNMENTS      3  4  5  6  7  8  9 10  1  1  1  1  1  1  1  1  1  2  2  2
TYPE ASSIGNMENTS      3  3  3  4  4  4  1  2  3  4  1  2  3  4  5  6  7  8  9 10
TYPE ASSIGNMENTS      1  1  1  1  1  1  1  1  1  2  2  2  3  3  3  4  4  4  1  2
TYPE ASSIGNMENTS      3  4  1  2  3  4  5  6  7  8  9 10  1  1  1  1  1  1  1  1
TYPE ASSIGNMENTS      1  1  1  1  1  1  1  1  1  1  1  1  1  1  1  1  1  1  1  1
TYPE ASSIGNMENTS      1  1
EXPONENTS  0.4563240D+04 0.6820240D+03 0.1549730D+03 0.4445530D+02 0.1302900D+02
EXPONENTS  0.1827730D+01 0.2096420D+02 0.4803310D+01 0.1459330D+01 0.2096420D+02
EXPONENTS  0.4803310D+01 0.1459330D+01 0.2096420D+02 0.4803310D+01 0.1459330D+01
EXPONENTS  0.2096420D+02 0.4803310D+01 0.1459330D+01 0.4834560D+00 0.4834560D+00
EXPONENTS  0.4834560D+00 0.4834560D+00 0.1455850D+00 0.1455850D+00 0.1455850D+00
EXPONENTS  0.1455850D+00 0.6260000D+00 0.6260000D+00 0.6260000D+00 0.6260000D+00
EXPONENTS  0.6260000D+00 0.6260000D+00 0.4563240D+04 0.6820240D+03 0.1549730D+03
EXPONENTS  0.4445530D+02 0.1302900D+02 0.1827730D+01 0.2096420D+02 0.4803310D+01
EXPONENTS  0.1459330D+01 0.2096420D+02 0.4803310D+01 0.1459330D+01 0.2096420D+02
EXPONENTS  0.4803310D+01 0.1459330D+01 0.2096420D+02 0.4803310D+01 0.1459330D+01
EXPONENTS  0.4834560D+00 0.4834560D+00 0.4834560D+00 0.4834560D+00 0.1455850D+00
EXPONENTS  0.1455850D+00 0.1455850D+00 0.1455850D+00 0.6260000D+00 0.6260000D+00
EXPONENTS  0.6260000D+00 0.6260000D+00 0.6260000D+00 0.6260000D+00 0.4563240D+04
EXPONENTS  0.6820240D+03 0.1549730D+03 0.4445530D+02 0.1302900D+02 0.1827730D+01
EXPONENTS  0.2096420D+02 0.4803310D+01 0.1459330D+01 0.2096420D+02 0.4803310D+01
EXPONENTS  0.1459330D+01 0.2096420D+02 0.4803310D+01 0.1459330D+01 0.2096420D+02
EXPONENTS  0.4803310D+01 0.1459330D+01 0.4834560D+00 0.4834560D+00 0.4834560D+00
EXPONENTS  0.4834560D+00 0.1455850D+00 0.1455850D+00 0.1455850D+00 0.1455850D+00
EXPONENTS  0.6260000D+00 0.6260000D+00 0.6260000D+00 0.6260000D+00 0.6260000D+00
EXPONENTS  0.6260000D+00 0.4563240D+04 0.6820240D+03 0.1549730D+03 0.4445530D+02
EXPONENTS  0.1302900D+02 0.1827730D+01 0.2096420D+02 0.4803310D+01 0.1459330D+01
EXPONENTS  0.2096420D+02 0.4803310D+01 0.1459330D+01 0.2096420D+02 0.4803310D+01
EXPONENTS  0.1459330D+01 0.2096420D+02 0.4803310D+01 0.1459330D+01 0.4834560D+00
EXPONENTS  0.4834560D+00 0.4834560D+00 0.4834560D+00 0.1455850D+00 0.1455850D+00
EXPONENTS  0.1455850D+00 0.1455850D+00 0.6260000D+00 0.6260000D+00 0.6260000D+00
EXPONENTS  0.6260000D+00 0.6260000D+00 0.6260000D+00 0.4563240D+04 0.6820240D+03
EXPONENTS  0.1549730D+03 0.4445530D+02 0.1302900D+02 0.1827730D+01 0.2096420D+02
EXPONENTS  0.4803310D+01 0.1459330D+01 0.2096420D+02 0.4803310D+01 0.1459330D+01
EXPONENTS  0.2096420D+02 0.4803310D+01 0.1459330D+01 0.2096420D+02 0.4803310D+01
EXPONENTS  0.1459330D+01 0.4834560D+00 0.4834560D+00 0.4834560D+00 0.4834560D+00
EXPONENTS  0.1455850D+00 0.1455850D+00 0.1455850D+00 0.1455850D+00 0.6260000D+00
EXPONENTS  0.6260000D+00 0.6260000D+00 0.6260000D+00 0.6260000D+00 0.6260000D+00
EXPONENTS  0.4563240D+04 0.6820240D+03 0.1549730D+03 0.4445530D+02 0.1302900D+02
EXPONENTS  0.1827730D+01 0.2096420D+02 0.4803310D+01 0.1459330D+01 0.2096420D+02
EXPONENTS  0.4803310D+01 0.1459330D+01 0.2096420D+02 0.4803310D+01 0.1459330D+01
EXPONENTS  0.2096420D+02 0.4803310D+01 0.1459330D+01 0.4834560D+00 0.4834560D+00
EXPONENTS  0.4834560D+00 0.4834560D+00 0.1455850D+00 0.1455850D+00 0.1455850D+00
EXPONENTS  0.1455850D+00 0.6260000D+00 0.6260000D+00 0.6260000D+00 0.6260000D+00
EXPONENTS  0.6260000D+00 0.6260000D+00 0.3386500D+02 0.5094790D+01 0.1158790D+01
EXPONENTS  0.3258400D+00 0.1027410D+00 0.3386500D+02 0.5094790D+01 0.1158790D+01
EXPONENTS  0.3258400D+00 0.1027410D+00 0.3386500D+02 0.5094790D+01 0.1158790D+01
EXPONENTS  0.3258400D+00 0.1027410D+00 0.3386500D+02 0.5094790D+01 0.1158790D+01
EXPONENTS  0.3258400D+00 0.1027410D+00 0.3386500D+02 0.5094790D+01 0.1158790D+01
EXPONENTS  0.3258400D+00 0.1027410D+00 0.3386500D+02 0.5094790D+01 0.1158790D+01
EXPONENTS  0.3258400D+00 0.1027410D+00
MO    1     MO 0.0        OCC NO =    2.0000000  ORB. ENERGY =  -10.174332
  0.17876219D+00  0.33278241D+00  0.54742394D+00  0.73509847D+00  0.69212292D+00
  0.56876348D-01  0.15172880D+00  0.40317183D+00 -0.54350379D-03  0.00000000D+00
  0.00000000D+00  0.00000000D+00 -0.29716150D-03 -0.27806994D-03 -0.21537592D-03
  0.00000000D+00  0.00000000D+00  0.00000000D+00  0.24309126D-02  0.00000000D+00
  0.22704868D-03  0.00000000D+00 -0.44006944D-03  0.00000000D+00 -0.59009562D-04
  0.00000000D+00 -0.17912578D-03  0.12842752D-03  0.50698262D-04  0.00000000D+00
  0.00000000D+00  0.00000000D+00  0.17876219D+00  0.33278241D+00  0.54742394D+00
  0.73509847D+00  0.69212292D+00  0.56876348D-01  0.15172880D+00  0.40317183D+00
 -0.54350379D-03 -0.25734940D-03 -0.24081564D-03 -0.18652102D-03 -0.14858075D-03
 -0.13903497D-03 -0.10768796D-03  0.00000000D+00  0.00000000D+00  0.00000000D+00
  0.24309126D-02  0.19662993D-03  0.11352434D-03  0.00000000D+00 -0.44006944D-03
 -0.51103780D-04 -0.29504781D-04  0.00000000D+00  0.51539195D-04 -0.10223746D-03
  0.50698262D-04  0.26634897D-03  0.00000000D+00  0.00000000D+00  0.17876219D+00
  0.33278241D+00  0.54742394D+00  0.73509847D+00  0.69212292D+00  0.56876348D-01
  0.15172880D+00  0.40317183D+00 -0.54350379D-03 -0.25734940D-03 -0.24081564D-03
 -0.18652102D-03  0.14858075D-03  0.13903497D-03  0.10768796D-03  0.00000000D+00
  0.00000000D+00  0.00000000D+00  0.24309126D-02  0.19662993D-03 -0.11352434D-03
  0.00000000D+00 -0.44006944D-03 -0.51103780D-04  0.29504781D-04  0.00000000D+00
  0.51539195D-04 -0.10223746D-03  0.50698262D-04 -0.26634897D-03  0.00000000D+00
  0.00000000D+00  0.17876219D+00  0.33278241D+00  0.54742394D+00  0.73509847D+00
  0.69212292D+00  0.56876348D-01  0.15172880D+00  0.40317183D+00 -0.54350379D-03
  0.00000000D+00  0.00000000D+00  0.00000000D+00  0.29716150D-03  0.27806994D-03
  0.21537592D-03  0.00000000D+00  0.00000000D+00  0.00000000D+00  0.24309126D-02
  0.00000000D+00 -0.22704868D-03  0.00000000D+00 -0.44006944D-03  0.00000000D+00
  0.59009562D-04  0.00000000D+00 -0.17912578D-03  0.12842752D-03  0.50698262D-04
  0.00000000D+00  0.00000000D+00  0.00000000D+00  0.17876219D+00  0.33278241D+00
  0.54742394D+00  0.73509847D+00  0.69212292D+00  0.56876348D-01  0.15172880D+00
  0.40317183D+00 -0.54350379D-03  0.25734940D-03  0.24081564D-03  0.18652102D-03
  0.14858075D-03  0.13903497D-03  0.10768796D-03  0.00000000D+00  0.00000000D+00
  0.00000000D+00  0.24309126D-02 -0.19662993D-03 -0.11352434D-03  0.00000000D+00
 -0.44006944D-03  0.51103780D-04  0.29504781D-04  0.00000000D+00  0.51539195D-04
 -0.10223746D-03  0.50698262D-04  0.26634897D-03  0.00000000D+00  0.00000000D+00
  0.17876219D+00  0.33278241D+00  0.54742394D+00  0.73509847D+00  0.69212292D+00
  0.56876348D-01  0.15172880D+00  0.40317183D+00 -0.54350379D-03  0.25734940D-03
  0.24081564D-03  0.18652102D-03 -0.14858075D-03 -0.13903497D-03 -0.10768796D-03
  0.00000000D+00  0.00000000D+00  0.00000000D+00  0.24309126D-02 -0.19662993D-03
  0.11352434D-03  0.00000000D+00 -0.44006944D-03  0.51103780D-04 -0.29504781D-04
  0.00000000D+00  0.51539195D-04 -0.10223746D-03  0.50698262D-04 -0.26634897D-03
  0.00000000D+00  0.00000000D+00 -0.32898119D-04 -0.59343513D-04 -0.87487980D-04
 -0.86573910D-04  0.15905444D-03 -0.32898119D-04 -0.59343513D-04 -0.87487980D-04
 -0.86573910D-04  0.15905444D-03 -0.32898119D-04 -0.59343513D-04 -0.87487980D-04
 -0.86573910D-04  0.15905444D-03 -0.32898119D-04 -0.59343513D-04 -0.87487980D-04
 -0.86573910D-04  0.15905444D-03 -0.32898119D-04 -0.59343513D-04 -0.87487980D-04
 -0.86573910D-04  0.15905444D-03 -0.32898119D-04 -0.59343513D-04 -0.87487980D-04
 -0.86573910D-04  0.15905444D-03
MO    2     MO 0.0        OCC NO =    2.0000000  ORB. ENERGY =  -10.174114
  0.00000000D+00  0.00000000D+00  0.00000000D+00  0.00000000D+00  0.00000000D+00
  0.00000000D+00  0.00000000D+00  0.00000000D+00  0.00000000D+00  0.25309906D-02
  0.23683836D-02  0.18344046D-02  0.00000000D+00  0.00000000D+00  0.00000000D+00
  0.00000000D+00  0.00000000D+00  0.00000000D+00  0.00000000D+00 -0.27203163D-02
  0.00000000D+00  0.00000000D+00  0.00000000D+00  0.93951172D-04  0.00000000D+00
  0.00000000D+00  0.00000000D+00  0.00000000D+00  0.00000000D+00  0.29589621D-02
  0.00000000D+00  0.00000000D+00  0.21898994D+00  0.40767011D+00  0.67061349D+00
  0.90052137D+00  0.84787481D+00  0.69675518D-01  0.18552547D+00  0.49297590D+00
 -0.66456596D-03  0.99147807D-03  0.92777919D-03  0.71860084D-03 -0.88883797D-03
 -0.83173334D-03 -0.64420962D-03  0.00000000D+00  0.00000000D+00  0.00000000D+00
  0.37862324D-02 -0.14139147D-02  0.75425131D-03  0.00000000D+00 -0.54454387D-03
  0.17180152D-03  0.44946917D-04  0.00000000D+00  0.64145673D-03 -0.32587174D-03
 -0.31558499D-03 -0.12835000D-02  0.00000000D+00  0.00000000D+00  0.21898994D+00
  0.40767011D+00  0.67061349D+00  0.90052137D+00  0.84787481D+00  0.69675518D-01
  0.18552547D+00  0.49297590D+00 -0.66456596D-03  0.99147807D-03  0.92777919D-03
  0.71860084D-03  0.88883797D-03  0.83173334D-03  0.64420962D-03  0.00000000D+00
  0.00000000D+00  0.00000000D+00  0.37862324D-02 -0.14139147D-02 -0.75425131D-03
  0.00000000D+00 -0.54454387D-03  0.17180152D-03 -0.44946917D-04  0.00000000D+00
  0.64145673D-03 -0.32587174D-03 -0.31558499D-03  0.12835000D-02  0.00000000D+00
  0.00000000D+00  0.00000000D+00  0.00000000D+00  0.00000000D+00  0.00000000D+00
  0.00000000D+00  0.00000000D+00  0.00000000D+00  0.00000000D+00  0.00000000D+00
  0.25309906D-02  0.23683836D-02  0.18344046D-02  0.00000000D+00  0.00000000D+00
  0.00000000D+00  0.00000000D+00  0.00000000D+00  0.00000000D+00  0.00000000D+00
 -0.27203163D-02  0.00000000D+00  0.00000000D+00  0.00000000D+00  0.93951172D-04
  0.00000000D+00  0.00000000D+00  0.00000000D+00  0.00000000D+00  0.00000000D+00
 -0.29589621D-02  0.00000000D+00  0.00000000D+00 -0.21898994D+00 -0.40767011D+00
 -0.67061349D+00 -0.90052137D+00 -0.84787481D+00 -0.69675518D-01 -0.18552547D+00
 -0.49297590D+00  0.66456596D-03  0.99147807D-03  0.92777919D-03  0.71860084D-03
 -0.88883797D-03 -0.83173334D-03 -0.64420962D-03  0.00000000D+00  0.00000000D+00
  0.00000000D+00 -0.37862324D-02 -0.14139147D-02  0.75425131D-03  0.00000000D+00
  0.54454387D-03  0.17180152D-03  0.44946917D-04  0.00000000D+00 -0.64145673D-03
  0.32587174D-03  0.31558499D-03  0.12835000D-02  0.00000000D+00  0.00000000D+00
 -0.21898994D+00 -0.40767011D+00 -0.67061349D+00 -0.90052137D+00 -0.84787481D+00
 -0.69675518D-01 -0.18552547D+00 -0.49297590D+00  0.66456596D-03  0.99147807D-03
  0.92777919D-03  0.71860084D-03  0.88883797D-03  0.83173334D-03  0.64420962D-03
  0.00000000D+00  0.00000000D+00  0.00000000D+00 -0.37862324D-02 -0.14139147D-02
 -0.75425131D-03  0.00000000D+00  0.54454387D-03  0.17180152D-03 -0.44946917D-04
  0.00000000D+00 -0.64145673D-03  0.32587174D-03  0.31558499D-03 -0.12835000D-02
  0.00000000D+00  0.00000000D+00  0.00000000D+00  0.00000000D+00  0.00000000D+00
  0.00000000D+00  0.00000000D+00  0.54686011D-04  0.98645761D-04  0.14542985D-03
 -0.23534372D-03  0.59501313D-04  0.54686011D-04  0.98645761D-04  0.14542985D-03
 -0.23534372D-03  0.59501313D-04  0.00000000D+00  0.00000000D+00  0.00000000D+00
  0.00000000D+00  0.00000000D+00 -0.54686011D-04 -0.98645761D-04 -0.14542985D-03
  0.23534372D-03 -0.59501313D-04 -0.54686011D-04 -0.98645761D-04 -0.14542985D-03
  0.23534372D-03 -0.59501313D-04
MO    3     MO 0.0        OCC NO =    2.0000000  ORB. ENERGY =  -10.174114
  0.25286780D+00  0.47073689D+00  0.77435776D+00  0.10398325D+01  0.97904150D+00
  0.80454358D-01  0.21422636D+00  0.56923954D+00 -0.76737467D-03  0.00000000D+00
  0.00000000D+00  0.00000000D+00  0.47830723D-03  0.44757772D-03  0.34666624D-03
  0.00000000D+00  0.00000000D+00  0.00000000D+00  0.43719646D-02  0.00000000D+00
 -0.97844754D-03  0.00000000D+00 -0.62878510D-03  0.00000000D+00  0.19775163D-03
  0.00000000D+00  0.54470942D-03 -0.18030326D-03 -0.36440616D-03  0.00000000D+00
  0.00000000D+00  0.00000000D+00  0.12643390D+00  0.23536845D+00  0.38717888D+00
  0.51991625D+00  0.48952075D+00  0.40227179D-01  0.10711318D+00  0.28461977D+00
 -0.38368733D-03 -0.88883797D-03 -0.83173334D-03 -0.64420962D-03  0.20178197D-02
  0.18881821D-02  0.14624700D-02  0.00000000D+00  0.00000000D+00  0.00000000D+00
  0.21859823D-02  0.75425131D-03 -0.22848491D-02  0.00000000D+00 -0.31439255D-03
  0.44946917D-04  0.11990129D-03  0.00000000D+00 -0.11091358D-02  0.12913389D-02
 -0.18220308D-03  0.96732847D-03  0.00000000D+00  0.00000000D+00 -0.12643390D+00
 -0.23536845D+00 -0.38717888D+00 -0.51991625D+00 -0.48952075D+00 -0.40227179D-01
 -0.10711318D+00 -0.28461977D+00  0.38368733D-03  0.88883797D-03  0.83173334D-03
  0.64420962D-03  0.20178197D-02  0.18881821D-02  0.14624700D-02  0.00000000D+00
  0.00000000D+00  0.00000000D+00 -0.21859823D-02 -0.75425131D-03 -0.22848491D-02
  0.00000000D+00  0.31439255D-03 -0.44946917D-04  0.11990129D-03  0.00000000D+00
  0.11091358D-02 -0.12913389D-02  0.18220308D-03  0.96732847D-03  0.00000000D+00
  0.00000000D+00 -0.25286780D+00 -0.47073689D+00 -0.77435776D+00 -0.10398325D+01
 -0.97904150D+00 -0.80454358D-01 -0.21422636D+00 -0.56923954D+00  0.76737467D-03
  0.00000000D+00  0.00000000D+00  0.00000000D+00  0.47830723D-03  0.44757772D-03
  0.34666624D-03  0.00000000D+00  0.00000000D+00  0.00000000D+00 -0.43719646D-02
  0.00000000D+00 -0.97844754D-03  0.00000000D+00  0.62878510D-03  0.00000000D+00
  0.19775163D-03  0.00000000D+00 -0.54470942D-03  0.18030326D-03  0.36440616D-03
  0.00000000D+00  0.00000000D+00  0.00000000D+00 -0.12643390D+00 -0.23536845D+00
 -0.38717888D+00 -0.51991625D+00 -0.48952075D+00 -0.40227179D-01 -0.10711318D+00
 -0.28461977D+00  0.38368733D-03 -0.88883797D-03 -0.83173334D-03 -0.64420962D-03
  0.20178197D-02  0.18881821D-02  0.14624700D-02  0.00000000D+00  0.00000000D+00
  0.00000000D+00 -0.21859823D-02  0.75425131D-03 -0.22848491D-02  0.00000000D+00
  0.31439255D-03  0.44946917D-04  0.11990129D-03  0.00000000D+00  0.11091358D-02
 -0.12913389D-02  0.18220308D-03 -0.96732847D-03  0.00000000D+00  0.00000000D+00
  0.12643390D+00  0.23536845D+00  0.38717888D+00  0.51991625D+00  0.48952075D+00
  0.40227179D-01  0.10711318D+00  0.28461977D+00 -0.38368733D-03  0.88883797D-03
  0.83173334D-03  0.64420962D-03  0.20178197D-02  0.18881821D-02  0.14624700D-02
  0.00000000D+00  0.00000000D+00  0.00000000D+00  0.21859823D-02 -0.75425131D-03
 -0.22848491D-02  0.00000000D+00 -0.31439255D-03 -0.44946917D-04  0.11990129D-03
  0.00000000D+00 -0.11091358D-02  0.12913389D-02 -0.18220308D-03 -0.96732847D-03
  0.00000000D+00  0.00000000D+00  0.63145966D-04  0.11390631D-03  0.16792793D-03
 -0.27175152D-03  0.68706198D-04  0.31572983D-04  0.56953157D-04  0.83963965D-04
 -0.13587576D-03  0.34353099D-04 -0.31572983D-04 -0.56953157D-04 -0.83963965D-04
  0.13587576D-03 -0.34353099D-04 -0.63145966D-04 -0.11390631D-03 -0.16792793D-03
  0.27175152D-03 -0.68706198D-04 -0.31572983D-04 -0.56953157D-04 -0.83963965D-04
  0.13587576D-03 -0.34353099D-04  0.31572983D-04  0.56953157D-04  0.83963965D-04
 -0.13587576D-03  0.34353099D-04
MO    4     MO 0.0        OCC NO =    2.0000000  ORB. ENERGY =  -10.173567
  0.25291892D+00  0.47083204D+00  0.77451428D+00  0.10400427D+01  0.97923940D+00
  0.80470621D-01  0.21409827D+00  0.56889919D+00 -0.76691584D-03  0.00000000D+00
  0.00000000D+00  0.00000000D+00  0.13568284D-02  0.12696571D-02  0.98339847D-03
  0.00000000D+00  0.00000000D+00  0.00000000D+00  0.44996858D-02  0.00000000D+00
 -0.15280102D-02  0.00000000D+00 -0.11593753D-02  0.00000000D+00  0.42117297D-03
  0.00000000D+00  0.12778958D-02 -0.28155724D-03 -0.99633855D-03  0.00000000D+00
  0.00000000D+00  0.00000000D+00 -0.12645946D+00 -0.23541602D+00 -0.38725714D+00
 -0.52002135D+00 -0.48961970D+00 -0.40235310D-01 -0.10704913D+00 -0.28444959D+00
  0.38345792D-03 -0.13041599D-02 -0.12203724D-02 -0.94522558D-03  0.90204291D-03
  0.84408991D-03  0.65378026D-03  0.00000000D+00  0.00000000D+00  0.00000000D+00
 -0.22498429D-02  0.12743528D-02 -0.67923350D-03  0.00000000D+00  0.57968765D-03
 -0.22514891D-03 -0.31203625D-04  0.00000000D+00 -0.62127321D-03  0.12310394D-03
  0.49816927D-03  0.13301170D-02  0.00000000D+00  0.00000000D+00 -0.12645946D+00
 -0.23541602D+00 -0.38725714D+00 -0.52002135D+00 -0.48961970D+00 -0.40235310D-01
 -0.10704913D+00 -0.28444959D+00  0.38345792D-03 -0.13041599D-02 -0.12203724D-02
 -0.94522558D-03 -0.90204291D-03 -0.84408991D-03 -0.65378026D-03  0.00000000D+00
  0.00000000D+00  0.00000000D+00 -0.22498429D-02  0.12743528D-02  0.67923350D-03
  0.00000000D+00  0.57968765D-03 -0.22514891D-03  0.31203625D-04  0.00000000D+00
 -0.62127321D-03  0.12310394D-03  0.49816927D-03 -0.13301170D-02  0.00000000D+00
  0.00000000D+00  0.25291892D+00  0.47083204D+00  0.77451428D+00  0.10400427D+01
  0.97923940D+00  0.80470621D-01  0.21409827D+00  0.56889919D+00 -0.76691584D-03
  0.00000000D+00  0.00000000D+00  0.00000000D+00 -0.13568284D-02 -0.12696571D-02
 -0.98339847D-03  0.00000000D+00  0.00000000D+00  0.00000000D+00  0.44996858D-02
  0.00000000D+00  0.15280102D-02  0.00000000D+00 -0.11593753D-02  0.00000000D+00
 -0.42117297D-03  0.00000000D+00  0.12778958D-02 -0.28155724D-03 -0.99633855D-03
  0.00000000D+00  0.00000000D+00  0.00000000D+00 -0.12645946D+00 -0.23541602D+00
 -0.38725714D+00 -0.52002135D+00 -0.48961970D+00 -0.40235310D-01 -0.10704913D+00
 -0.28444959D+00  0.38345792D-03  0.13041599D-02  0.12203724D-02  0.94522558D-03
 -0.90204291D-03 -0.84408991D-03 -0.65378026D-03  0.00000000D+00  0.00000000D+00
  0.00000000D+00 -0.22498429D-02 -0.12743528D-02  0.67923350D-03  0.00000000D+00
  0.57968765D-03  0.22514891D-03  0.31203625D-04  0.00000000D+00 -0.62127321D-03
  0.12310394D-03  0.49816927D-03  0.13301170D-02  0.00000000D+00  0.00000000D+00
 -0.12645946D+00 -0.23541602D+00 -0.38725714D+00 -0.52002135D+00 -0.48961970D+00
 -0.40235310D-01 -0.10704913D+00 -0.28444959D+00  0.38345792D-03  0.13041599D-02
  0.12203724D-02  0.94522558D-03  0.90204291D-03  0.84408991D-03  0.65378026D-03
  0.00000000D+00  0.00000000D+00  0.00000000D+00 -0.22498429D-02 -0.12743528D-02
 -0.67923350D-03  0.00000000D+00  0.57968765D-03  0.22514891D-03 -0.31203625D-04
  0.00000000D+00 -0.62127321D-03  0.12310394D-03  0.49816927D-03 -0.13301170D-02
  0.00000000D+00  0.00000000D+00  0.90903300D-04  0.16397658D-03  0.24174471D-03
 -0.24066588D-03 -0.60496485D-05 -0.45451650D-04 -0.81988292D-04 -0.12087235D-03
  0.12033294D-03  0.30248242D-05 -0.45451650D-04 -0.81988292D-04 -0.12087235D-03
  0.12033294D-03  0.30248242D-05  0.90903300D-04  0.16397658D-03  0.24174471D-03
 -0.24066588D-03 -0.60496485D-05 -0.45451650D-04 -0.81988292D-04 -0.12087235D-03
  0.12033294D-03  0.30248242D-05 -0.45451650D-04 -0.81988292D-04 -0.12087235D-03
  0.12033294D-03  0.30248242D-05
MO    5     MO 0.0        OCC NO =    2.0000000  ORB. ENERGY =  -10.173567
  0.00000000D+00  0.00000000D+00  0.00000000D+00  0.00000000D+00  0.00000000D+00
  0.00000000D+00  0.00000000D+00  0.00000000D+00  0.00000000D+00  0.16550000D-02
  0.15486722D-02  0.11995065D-02  0.00000000D+00  0.00000000D+00  0.00000000D+00
  0.00000000D+00  0.00000000D+00  0.00000000D+00  0.00000000D+00 -0.14149814D-02
  0.00000000D+00  0.00000000D+00  0.00000000D+00  0.98786157D-04  0.00000000D+00
  0.00000000D+00  0.00000000D+00  0.00000000D+00  0.00000000D+00  0.15123205D-02
  0.00000000D+00  0.00000000D+00  0.21903421D+00  0.40775251D+00  0.67074904D+00
  0.90070339D+00  0.84804620D+00  0.69689602D-01  0.18541454D+00  0.49268115D+00
 -0.66416860D-03  0.60387128D-03  0.56507474D-03  0.43767222D-03  0.13041599D-02
  0.12203724D-02  0.94522558D-03  0.00000000D+00  0.00000000D+00  0.00000000D+00
  0.38968422D-02 -0.79226232D-03 -0.12743528D-02  0.00000000D+00 -0.10040485D-02
  0.29118319D-03  0.22514891D-03  0.00000000D+00 -0.23363124D-03  0.10964857D-02
 -0.86285449D-03 -0.79150964D-03  0.00000000D+00  0.00000000D+00 -0.21903421D+00
 -0.40775251D+00 -0.67074904D+00 -0.90070339D+00 -0.84804620D+00 -0.69689602D-01
 -0.18541454D+00 -0.49268115D+00  0.66416860D-03 -0.60387128D-03 -0.56507474D-03
 -0.43767222D-03  0.13041599D-02  0.12203724D-02  0.94522558D-03  0.00000000D+00
  0.00000000D+00  0.00000000D+00 -0.38968422D-02  0.79226232D-03 -0.12743528D-02
  0.00000000D+00  0.10040485D-02 -0.29118319D-03  0.22514891D-03  0.00000000D+00
  0.23363124D-03 -0.10964857D-02  0.86285449D-03 -0.79150964D-03  0.00000000D+00
  0.00000000D+00  0.00000000D+00  0.00000000D+00  0.00000000D+00  0.00000000D+00
  0.00000000D+00  0.00000000D+00  0.00000000D+00  0.00000000D+00  0.00000000D+00
 -0.16550000D-02 -0.15486722D-02 -0.11995065D-02  0.00000000D+00  0.00000000D+00
  0.00000000D+00  0.00000000D+00  0.00000000D+00  0.00000000D+00  0.00000000D+00
  0.14149814D-02  0.00000000D+00  0.00000000D+00  0.00000000D+00 -0.98786157D-04
  0.00000000D+00  0.00000000D+00  0.00000000D+00  0.00000000D+00  0.00000000D+00
  0.15123205D-02  0.00000000D+00  0.00000000D+00  0.21903421D+00  0.40775251D+00
  0.67074904D+00  0.90070339D+00  0.84804620D+00  0.69689602D-01  0.18541454D+00
  0.49268115D+00 -0.66416860D-03 -0.60387128D-03 -0.56507474D-03 -0.43767222D-03
 -0.13041599D-02 -0.12203724D-02 -0.94522558D-03  0.00000000D+00  0.00000000D+00
  0.00000000D+00  0.38968422D-02  0.79226232D-03  0.12743528D-02  0.00000000D+00
 -0.10040485D-02 -0.29118319D-03 -0.22514891D-03  0.00000000D+00 -0.23363124D-03
  0.10964857D-02 -0.86285449D-03 -0.79150964D-03  0.00000000D+00  0.00000000D+00
 -0.21903421D+00 -0.40775251D+00 -0.67074904D+00 -0.90070339D+00 -0.84804620D+00
 -0.69689602D-01 -0.18541454D+00 -0.49268115D+00  0.66416860D-03  0.60387128D-03
  0.56507474D-03  0.43767222D-03 -0.13041599D-02 -0.12203724D-02 -0.94522558D-03
  0.00000000D+00  0.00000000D+00  0.00000000D+00 -0.38968422D-02 -0.79226232D-03
  0.12743528D-02  0.00000000D+00  0.10040485D-02  0.29118319D-03 -0.22514891D-03
  0.00000000D+00  0.23363124D-03 -0.10964857D-02  0.86285449D-03 -0.79150964D-03
  0.00000000D+00  0.00000000D+00  0.00000000D+00  0.00000000D+00  0.00000000D+00
  0.00000000D+00  0.00000000D+00  0.78724567D-04  0.14200789D-03  0.20935706D-03
 -0.20842276D-03 -0.52391493D-05 -0.78724567D-04 -0.14200789D-03 -0.20935706D-03
  0.20842276D-03  0.52391493D-05  0.00000000D+00  0.00000000D+00  0.00000000D+00
  0.00000000D+00  0.00000000D+00  0.78724567D-04  0.14200789D-03  0.20935706D-03
 -0.20842276D-03 -0.52391493D-05 -0.78724567D-04 -0.14200789D-03 -0.20935706D-03
  0.20842276D-03  0.52391493D-05
MO    6     MO 0.0        OCC NO =    2.0000000  ORB. ENERGY =  -10.173298
  0.17885831D+00  0.33296135D+00  0.54771829D+00  0.73549374D+00  0.69249508D+00
  0.56906931D-01  0.15134240D+00  0.40214509D+00 -0.54211968D-03  0.00000000D+00
  0.00000000D+00  0.00000000D+00  0.11150304D-02  0.10433937D-02  0.80814877D-03
  0.00000000D+00  0.00000000D+00  0.00000000D+00  0.34229105D-02  0.00000000D+00
 -0.10646423D-02  0.00000000D+00 -0.32851848D-02  0.00000000D+00  0.13563682D-02
  0.00000000D+00  0.10083632D-02 -0.18868238D-03 -0.81968081D-03  0.00000000D+00
  0.00000000D+00  0.00000000D+00 -0.17885831D+00 -0.33296135D+00 -0.54771829D+00
 -0.73549374D+00 -0.69249508D+00 -0.56906931D-01 -0.15134240D+00 -0.40214509D+00
  0.54211968D-03 -0.96564465D-03 -0.90360547D-03 -0.69987737D-03 -0.55751520D-03
 -0.52169686D-03 -0.40407439D-03  0.00000000D+00  0.00000000D+00  0.00000000D+00
 -0.34229105D-02  0.92200729D-03  0.53232116D-03  0.00000000D+00  0.32851848D-02
 -0.11746494D-02 -0.67818412D-03  0.00000000D+00 -0.11057901D-03 -0.70910179D-03
  0.81968081D-03  0.10366719D-02  0.00000000D+00  0.00000000D+00  0.17885831D+00
  0.33296135D+00  0.54771829D+00  0.73549374D+00  0.69249508D+00  0.56906931D-01
  0.15134240D+00  0.40214509D+00 -0.54211968D-03  0.96564465D-03  0.90360547D-03
  0.69987737D-03 -0.55751520D-03 -0.52169686D-03 -0.40407439D-03  0.00000000D+00
  0.00000000D+00  0.00000000D+00  0.34229105D-02 -0.92200729D-03  0.53232116D-03
  0.00000000D+00 -0.32851848D-02  0.11746494D-02 -0.67818412D-03  0.00000000D+00
  0.11057901D-03  0.70910179D-03 -0.81968081D-03  0.10366719D-02  0.00000000D+00
  0.00000000D+00 -0.17885831D+00 -0.33296135D+00 -0.54771829D+00 -0.73549374D+00
 -0.69249508D+00 -0.56906931D-01 -0.15134240D+00 -0.40214509D+00  0.54211968D-03
  0.00000000D+00  0.00000000D+00  0.00000000D+00  0.11150304D-02  0.10433937D-02
  0.80814877D-03  0.00000000D+00  0.00000000D+00  0.00000000D+00 -0.34229105D-02
  0.00000000D+00 -0.10646423D-02  0.00000000D+00  0.32851848D-02  0.00000000D+00
  0.13563682D-02  0.00000000D+00 -0.10083632D-02  0.18868238D-03  0.81968081D-03
  0.00000000D+00  0.00000000D+00  0.00000000D+00  0.17885831D+00  0.33296135D+00
  0.54771829D+00  0.73549374D+00  0.69249508D+00  0.56906931D-01  0.15134240D+00
  0.40214509D+00 -0.54211968D-03 -0.96564465D-03 -0.90360547D-03 -0.69987737D-03
 -0.55751520D-03 -0.52169686D-03 -0.40407439D-03  0.00000000D+00  0.00000000D+00
  0.00000000D+00  0.34229105D-02  0.92200729D-03  0.53232116D-03  0.00000000D+00
 -0.32851848D-02 -0.11746494D-02 -0.67818412D-03  0.00000000D+00  0.11057901D-03
  0.70910179D-03 -0.81968081D-03 -0.10366719D-02  0.00000000D+00  0.00000000D+00
 -0.17885831D+00 -0.33296135D+00 -0.54771829D+00 -0.73549374D+00 -0.69249508D+00
 -0.56906931D-01 -0.15134240D+00 -0.40214509D+00  0.54211968D-03  0.96564465D-03
  0.90360547D-03  0.69987737D-03 -0.55751520D-03 -0.52169686D-03 -0.40407439D-03
  0.00000000D+00  0.00000000D+00  0.00000000D+00 -0.34229105D-02 -0.92200729D-03
  0.53232116D-03  0.00000000D+00  0.32851848D-02  0.11746494D-02 -0.67818412D-03
  0.00000000D+00 -0.11057901D-03 -0.70910179D-03  0.81968081D-03 -0.10366719D-02
  0.00000000D+00  0.00000000D+00  0.94028295D-04  0.16961363D-03  0.25005520D-03
 -0.47164635D-03 -0.18841025D-03 -0.94028295D-04 -0.16961363D-03 -0.25005520D-03
  0.47164635D-03  0.18841025D-03  0.94028295D-04  0.16961363D-03  0.25005520D-03
 -0.47164635D-03 -0.18841025D-03 -0.94028295D-04 -0.16961363D-03 -0.25005520D-03
  0.47164635D-03  0.18841025D-03  0.94028295D-04  0.16961363D-03  0.25005520D-03
 -0.47164635D-03 -0.18841025D-03 -0.94028295D-04 -0.16961363D-03 -0.25005520D-03
  0.47164635D-03  0.18841025D-03
MO    7     MO 0.0        OCC NO =    2.0000000  ORB. ENERGY =   -0.856432
 -0.40396169D-01 -0.75201218D-01 -0.12370530D+00 -0.16611545D+00 -0.15640396D+00
 -0.12852755D-01 -0.64396428D-01 -0.17111337D+00  0.23067277D-03  0.00000000D+00
  0.00000000D+00  0.00000000D+00 -0.75489585D-01 -0.70639652D-01 -0.54713141D-01
  0.00000000D+00  0.00000000D+00  0.00000000D+00  0.87322806D-01  0.00000000D+00
 -0.22374577D-01  0.00000000D+00  0.15238130D-01  0.00000000D+00 -0.93755941D-03
  0.00000000D+00  0.30973351D-02  0.45779997D-02 -0.76753348D-02  0.00000000D+00
  0.00000000D+00  0.00000000D+00 -0.40396169D-01 -0.75201218D-01 -0.12370530D+00
 -0.16611545D+00 -0.15640396D+00 -0.12852755D-01 -0.64396428D-01 -0.17111337D+00
  0.23067277D-03 -0.65375898D-01 -0.61175733D-01 -0.47382970D-01 -0.37744792D-01
 -0.35319826D-01 -0.27356570D-01  0.00000000D+00  0.00000000D+00  0.00000000D+00
  0.87322806D-01 -0.19376952D-01 -0.11187289D-01  0.00000000D+00  0.15238130D-01
 -0.81195026D-03 -0.46877970D-03  0.00000000D+00  0.42078336D-02  0.34675013D-02