b3lyp/6-31g** opted                                                     
FOpt      RB3LYP                                                      6-31G(d,p)          
Number of atoms                            I               10
Info1-9                                    I   N=           9
          18          17           0           0           0         110
           2          18        -502
Charge                                     I                0
Multiplicity                               I                1
Number of electrons                        I               30
Number of alpha electrons                  I               15
Number of beta electrons                   I               15
Number of basis functions                  I               90
Number of independent functions            I               90
Number of point charges in /Mol/           I                0
Number of translation vectors              I                0
Atomic numbers                             I   N=          10
           6           1           1           6           1           6
           1           6           1           1
Nuclear charges                            R   N=          10
  6.00000000E+00  1.00000000E+00  1.00000000E+00  6.00000000E+00  1.00000000E+00
  6.00000000E+00  1.00000000E+00  6.00000000E+00  1.00000000E+00  1.00000000E+00
Current cartesian coordinates              R   N=          30
  1.13723715E+00  3.30797441E+00  0.00000000E+00 -6.14326357E-01  4.38142106E+00
  0.00000000E+00  2.87971091E+00  4.38840137E+00  0.00000000E+00  1.13723715E+00
  7.76056495E-01  0.00000000E+00  2.93122047E+00 -2.35568421E-01  0.00000000E+00
 -1.13723715E+00 -7.76056495E-01  0.00000000E+00 -2.93122047E+00  2.35568421E-01
  0.00000000E+00 -1.13723715E+00 -3.30797441E+00  0.00000000E+00  6.14326357E-01
 -4.38142106E+00  0.00000000E+00 -2.87971091E+00 -4.38840137E+00  0.00000000E+00
Force Field                                I                0
Int Atom Types                             I   N=          10
           0           0           0           0           0           0
           0           0           0           0
MM charges                                 R   N=          10
  0.00000000E+00  0.00000000E+00  0.00000000E+00  0.00000000E+00  0.00000000E+00
  0.00000000E+00  0.00000000E+00  0.00000000E+00  0.00000000E+00  0.00000000E+00
Integer atomic weights                     I   N=          10
          12           1           1          12           1          12
           1          12           1           1
Real atomic weights                        R   N=          10
  1.20000000E+01  1.00782504E+00  1.00782504E+00  1.20000000E+01  1.00782504E+00
  1.20000000E+01  1.00782504E+00  1.20000000E+01  1.00782504E+00  1.00782504E+00
Atom fragment info                         I   N=          10
           0           0           0           0           0           0
           0           0           0           0
Atom residue num                           I   N=          10
           0           0           0           0           0           0
           0           0           0           0
Nuclear spins                              I   N=          10
           0           1           1           0           1           0
           1           0           1           1
Nuclear ZEff                               R   N=          10
 -3.60000000E+00 -1.00000000E+00 -1.00000000E+00 -3.60000000E+00 -1.00000000E+00
 -3.60000000E+00 -1.00000000E+00 -3.60000000E+00 -1.00000000E+00 -1.00000000E+00
Nuclear QMom                               R   N=          10
  0.00000000E+00  0.00000000E+00  0.00000000E+00  0.00000000E+00  0.00000000E+00
  0.00000000E+00  0.00000000E+00  0.00000000E+00  0.00000000E+00  0.00000000E+00
Nuclear GFac                               R   N=          10
  0.00000000E+00  2.79284600E+00  2.79284600E+00  0.00000000E+00  2.79284600E+00
  0.00000000E+00  2.79284600E+00  0.00000000E+00  2.79284600E+00  2.79284600E+00
MicOpt                                     I   N=          10
          -1          -1          -1          -1          -1          -1
          -1          -1          -1          -1
Number of contracted shells                I               34
Number of primitive shells                 I               74
Pure/Cartesian d shells                    I                1
Pure/Cartesian f shells                    I                0
Highest angular momentum                   I                2
Largest degree of contraction              I                6
Shell types                                I   N=          34
           0          -1          -1           2           0           0
           1           0           0           1           0          -1
          -1           2           0           0           1           0
          -1          -1           2           0           0           1
           0          -1          -1           2           0           0
           1           0           0           1
Number of primitives per shell             I   N=          34
           6           3           1           1           3           1
           1           3           1           1           6           3
           1           1           3           1           1           6
           3           1           1           3           1           1
           6           3           1           1           3           1
           1           3           1           1
Shell to atom map                          I   N=          34
           1           1           1           1           2           2
           2           3           3           3           4           4
           4           4           5           5           5           6
           6           6           6           7           7           7
           8           8           8           8           9           9
           9          10          10          10
Primitive exponents                        R   N=          74
  3.04752488E+03  4.57369518E+02  1.03948685E+02  2.92101553E+01  9.28666296E+00
  3.16392696E+00  7.86827235E+00  1.88128854E+00  5.44249258E-01  1.68714478E-01
  8.00000000E-01  1.87311370E+01  2.82539436E+00  6.40121692E-01  1.61277759E-01
  1.10000000E+00  1.87311370E+01  2.82539436E+00  6.40121692E-01  1.61277759E-01
  1.10000000E+00  3.04752488E+03  4.57369518E+02  1.03948685E+02  2.92101553E+01
  9.28666296E+00  3.16392696E+00  7.86827235E+00  1.88128854E+00  5.44249258E-01
  1.68714478E-01  8.00000000E-01  1.87311370E+01  2.82539436E+00  6.40121692E-01
  1.61277759E-01  1.10000000E+00  3.04752488E+03  4.57369518E+02  1.03948685E+02
  2.92101553E+01  9.28666296E+00  3.16392696E+00  7.86827235E+00  1.88128854E+00
  5.44249258E-01  1.68714478E-01  8.00000000E-01  1.87311370E+01  2.82539436E+00
  6.40121692E-01  1.61277759E-01  1.10000000E+00  3.04752488E+03  4.57369518E+02
  1.03948685E+02  2.92101553E+01  9.28666296E+00  3.16392696E+00  7.86827235E+00
  1.88128854E+00  5.44249258E-01  1.68714478E-01  8.00000000E-01  1.87311370E+01
  2.82539436E+00  6.40121692E-01  1.61277759E-01  1.10000000E+00  1.87311370E+01
  2.82539436E+00  6.40121692E-01  1.61277759E-01  1.10000000E+00
Contraction coefficients                   R   N=          74
  1.83473713E-03  1.40373228E-02  6.88426223E-02  2.32184443E-01  4.67941348E-01
  3.62311985E-01 -1.19332420E-01 -1.60854152E-01  1.14345644E+00  1.00000000E+00
  1.00000000E+00  3.34946043E-02  2.34726953E-01  8.13757326E-01  1.00000000E+00
  1.00000000E+00  3.34946043E-02  2.34726953E-01  8.13757326E-01  1.00000000E+00
  1.00000000E+00  1.83473713E-03  1.40373228E-02  6.88426223E-02  2.32184443E-01
  4.67941348E-01  3.62311985E-01 -1.19332420E-01 -1.60854152E-01  1.14345644E+00
  1.00000000E+00  1.00000000E+00  3.34946043E-02  2.34726953E-01  8.13757326E-01
  1.00000000E+00  1.00000000E+00  1.83473713E-03  1.40373228E-02  6.88426223E-02
  2.32184443E-01  4.67941348E-01  3.62311985E-01 -1.19332420E-01 -1.60854152E-01
  1.14345644E+00  1.00000000E+00  1.00000000E+00  3.34946043E-02  2.34726953E-01
  8.13757326E-01  1.00000000E+00  1.00000000E+00  1.83473713E-03  1.40373228E-02
  6.88426223E-02  2.32184443E-01  4.67941348E-01  3.62311985E-01 -1.19332420E-01
 -1.60854152E-01  1.14345644E+00  1.00000000E+00  1.00000000E+00  3.34946043E-02
  2.34726953E-01  8.13757326E-01  1.00000000E+00  1.00000000E+00  3.34946043E-02
  2.34726953E-01  8.13757326E-01  1.00000000E+00  1.00000000E+00
P(S=P) Contraction coefficients            R   N=          74
  0.00000000E+00  0.00000000E+00  0.00000000E+00  0.00000000E+00  0.00000000E+00
  0.00000000E+00  6.89990666E-02  3.16423961E-01  7.44308291E-01  1.00000000E+00
  0.00000000E+00  0.00000000E+00  0.00000000E+00  0.00000000E+00  0.00000000E+00
  0.00000000E+00  0.00000000E+00  0.00000000E+00  0.00000000E+00  0.00000000E+00
  0.00000000E+00  0.00000000E+00  0.00000000E+00  0.00000000E+00  0.00000000E+00
  0.00000000E+00  0.00000000E+00  6.89990666E-02  3.16423961E-01  7.44308291E-01
  1.00000000E+00  0.00000000E+00  0.00000000E+00  0.00000000E+00  0.00000000E+00
  0.00000000E+00  0.00000000E+00  0.00000000E+00  0.00000000E+00  0.00000000E+00
  0.00000000E+00  0.00000000E+00  0.00000000E+00  6.89990666E-02  3.16423961E-01
  7.44308291E-01  1.00000000E+00  0.00000000E+00  0.00000000E+00  0.00000000E+00
  0.00000000E+00  0.00000000E+00  0.00000000E+00  0.00000000E+00  0.00000000E+00
  0.00000000E+00  0.00000000E+00  0.00000000E+00  0.00000000E+00  6.89990666E-02
  3.16423961E-01  7.44308291E-01  1.00000000E+00  0.00000000E+00  0.00000000E+00
  0.00000000E+00  0.00000000E+00  0.00000000E+00  0.00000000E+00  0.00000000E+00
  0.00000000E+00  0.00000000E+00  0.00000000E+00  0.00000000E+00
Coordinates of each shell                  R   N=         102
  1.13723715E+00  3.30797441E+00  0.00000000E+00  1.13723715E+00  3.30797441E+00
  0.00000000E+00  1.13723715E+00  3.30797441E+00  0.00000000E+00  1.13723715E+00
  3.30797441E+00  0.00000000E+00 -6.14326357E-01  4.38142106E+00  0.00000000E+00
 -6.14326357E-01  4.38142106E+00  0.00000000E+00 -6.14326357E-01  4.38142106E+00
  0.00000000E+00  2.87971091E+00  4.38840137E+00  0.00000000E+00  2.87971091E+00
  4.38840137E+00  0.00000000E+00  2.87971091E+00  4.38840137E+00  0.00000000E+00
  1.13723715E+00  7.76056495E-01  0.00000000E+00  1.13723715E+00  7.76056495E-01
  0.00000000E+00  1.13723715E+00  7.76056495E-01  0.00000000E+00  1.13723715E+00
  7.76056495E-01  0.00000000E+00  2.93122047E+00 -2.35568421E-01  0.00000000E+00
  2.93122047E+00 -2.35568421E-01  0.00000000E+00  2.93122047E+00 -2.35568421E-01
  0.00000000E+00 -1.13723715E+00 -7.76056495E-01  0.00000000E+00 -1.13723715E+00
 -7.76056495E-01  0.00000000E+00 -1.13723715E+00 -7.76056495E-01  0.00000000E+00
 -1.13723715E+00 -7.76056495E-01  0.00000000E+00 -2.93122047E+00  2.35568421E-01
  0.00000000E+00 -2.93122047E+00  2.35568421E-01  0.00000000E+00 -2.93122047E+00
  2.35568421E-01  0.00000000E+00 -1.13723715E+00 -3.30797441E+00  0.00000000E+00
 -1.13723715E+00 -3.30797441E+00  0.00000000E+00 -1.13723715E+00 -3.30797441E+00
  0.00000000E+00 -1.13723715E+00 -3.30797441E+00  0.00000000E+00  6.14326357E-01
 -4.38142106E+00  0.00000000E+00  6.14326357E-01 -4.38142106E+00  0.00000000E+00
  6.14326357E-01 -4.38142106E+00  0.00000000E+00 -2.87971091E+00 -4.38840137E+00
  0.00000000E+00 -2.87971091E+00 -4.38840137E+00  0.00000000E+00 -2.87971091E+00
 -4.38840137E+00  0.00000000E+00
Constraint Structure                       R   N=          30
  1.13730144E+00  3.30987989E+00  0.00000000E+00 -6.14737360E-01  4.38566885E+00
  0.00000000E+00  2.88053600E+00  4.39207313E+00  0.00000000E+00  1.13730144E+00
  7.76601852E-01  0.00000000E+00  2.93213686E+00 -2.36006007E-01  0.00000000E+00
 -1.13730144E+00 -7.76601852E-01  0.00000000E+00 -2.93213686E+00  2.36006007E-01
  0.00000000E+00 -1.13730144E+00 -3.30987989E+00  0.00000000E+00  6.14737360E-01
 -4.38566885E+00  0.00000000E+00 -2.88053600E+00 -4.39207313E+00  0.00000000E+00
Num ILSW                                   I              100
ILSW                                       I   N=         100
           0           1           0           0           2           0
           0           0           0           0         402          -1
           0           0           0           0           0           0
           0           0           0           0           1           0
           1           0           0           0           0           0
           0           0      100000           0          -1           0
           0           0           0           0           0           0
           0           0           0           1           0           0
           0           0           1           0           0           0
           0           0           4          40           0           0
           0           0           5           0           0           0
           0           0           0           0           0           0
           0           0           0           0           0           0
           0           0           0           0           0           0
           0           0           0           0           0           0
           0           0           0           0           0           0
           0           0           0           0
Num RLSW                                   I               40
RLSW                                       R   N=          40
  8.00000000E-01  7.20000000E-01  1.00000000E+00  8.10000000E-01  2.00000000E-01
  0.00000000E+00  0.00000000E+00  1.00000000E+00  0.00000000E+00  0.00000000E+00
  0.00000000E+00  0.00000000E+00  1.00000000E+00  0.00000000E+00  0.00000000E+00
  0.00000000E+00  0.00000000E+00  1.00000000E+00  0.00000000E+00  0.00000000E+00
  0.00000000E+00  0.00000000E+00  1.00000000E+00  0.00000000E+00  0.00000000E+00
  0.00000000E+00  0.00000000E+00  1.00000000E+00  0.00000000E+00  0.00000000E+00
  0.00000000E+00  0.00000000E+00  0.00000000E+00  0.00000000E+00  0.00000000E+00
  0.00000000E+00  0.00000000E+00  0.00000000E+00  1.00000000E+00  1.00000000E+00
MxBond                                     I                3
NBond                                      I   N=          10
           3           1           1           3           1           3
           1           3           1           1
IBond                                      I   N=          30
           2           3           4           1           0           0
           1           0           0           1           5           6
           4           0           0           4           7           8
           6           0           0           6           9          10
           8           0           0           8           0           0
RBond                                      R   N=          30
  1.00000000E+00  1.00000000E+00  2.00000000E+00  1.00000000E+00  0.00000000E+00
  0.00000000E+00  1.00000000E+00  0.00000000E+00  0.00000000E+00  2.00000000E+00
  1.00000000E+00  1.00000000E+00  1.00000000E+00  0.00000000E+00  0.00000000E+00
  1.00000000E+00  1.00000000E+00  2.00000000E+00  1.00000000E+00  0.00000000E+00
  0.00000000E+00  2.00000000E+00  1.00000000E+00  1.00000000E+00  1.00000000E+00
  0.00000000E+00  0.00000000E+00  1.00000000E+00  0.00000000E+00  0.00000000E+00
Virial Ratio                               R      2.010228917924602E+00
SCF Energy                                 R     -1.560016613651926E+02
Total Energy                               R     -1.560016613651926E+02
RMS Force                                  R      6.232130783936560E-05
RMS Density                                R      1.903917154465476E-09
External E-field                           R   N=          35
  0.00000000E+00  0.00000000E+00  0.00000000E+00  0.00000000E+00  0.00000000E+00
  0.00000000E+00  0.00000000E+00  0.00000000E+00  0.00000000E+00  0.00000000E+00
  0.00000000E+00  0.00000000E+00  0.00000000E+00  0.00000000E+00  0.00000000E+00
  0.00000000E+00  0.00000000E+00  0.00000000E+00  0.00000000E+00  0.00000000E+00
  0.00000000E+00  0.00000000E+00  0.00000000E+00  0.00000000E+00  0.00000000E+00
  0.00000000E+00  0.00000000E+00  0.00000000E+00  0.00000000E+00  0.00000000E+00
  0.00000000E+00  0.00000000E+00  0.00000000E+00  0.00000000E+00  0.00000000E+00
IOpCl                                      I                0
IROHF                                      I                0
Alpha Orbital Energies                     R   N=          90
 -1.01925519E+01 -1.01922060E+01 -1.01838289E+01 -1.01838288E+01 -8.01762316E-01
 -7.29910384E-01 -6.02662715E-01 -5.49549461E-01 -4.63296121E-01 -4.58570467E-01
 -3.90893457E-01 -3.83638132E-01 -3.43239799E-01 -3.20442417E-01 -2.29703087E-01
 -2.35108765E-02  8.40057431E-02  1.15937917E-01  1.25696753E-01  1.30847012E-01
  1.75335932E-01  1.92404564E-01  2.12294863E-01  3.23708906E-01  3.35747306E-01
  3.96320659E-01  4.70377310E-01  5.10257919E-01  5.29993508E-01  5.77806697E-01
  6.05403012E-01  6.24533490E-01  6.61598104E-01  6.71059918E-01  6.71479552E-01
  6.92635179E-01  8.21146790E-01  8.36549983E-01  8.43048797E-01  8.67120683E-01
  9.21960056E-01  9.31392500E-01  9.56003587E-01  1.05478576E+00  1.10234238E+00
  1.12009848E+00  1.31211858E+00  1.31319407E+00  1.35095482E+00  1.35363324E+00
  1.41429583E+00  1.45901587E+00  1.52320813E+00  1.78085742E+00  1.83676633E+00
  1.86193096E+00  1.94503758E+00  1.95269133E+00  1.96970915E+00  1.98055354E+00
  2.06845217E+00  2.10409630E+00  2.14861934E+00  2.20001720E+00  2.26373284E+00
  2.29510064E+00  2.40776897E+00  2.41497635E+00  2.44968938E+00  2.52251034E+00
  2.54872433E+00  2.56062613E+00  2.67235664E+00  2.67377670E+00  2.68098772E+00
  2.69622083E+00  2.74646348E+00  2.86835423E+00  2.95986624E+00  3.03674610E+00
  3.23160009E+00  3.29496552E+00  3.38918681E+00  3.45470232E+00  3.69828501E+00
  3.71010661E+00  4.13774024E+00  4.21400034E+00  4.37587503E+00  4.64436602E+00
Alpha MO coefficients                      R   N=        8100
  3.33482431E-02  1.20648927E-03  2.05175043E-05  2.47230768E-04  0.00000000E+00
  3.63332784E-03 -4.59423505E-04 -1.68292198E-03  0.00000000E+00 -4.98391935E-04
 -5.22154414E-04 -4.49283895E-04  3.21537595E-05  0.00000000E+00  0.00000000E+00
 -9.64329398E-05 -1.61074043E-04  4.92538780E-05 -1.36759773E-05  0.00000000E+00
 -3.09870300E-05  3.05372262E-04 -3.92602808E-05 -4.31140511E-05  0.00000000E+00
  7.01091924E-01  3.46548358E-02  1.03874930E-04  9.80165458E-05  0.00000000E+00
 -7.67212234E-03  3.64913076E-04 -2.02997272E-03  0.00000000E+00 -6.86699830E-03
 -6.54599441E-03 -6.86516726E-03 -1.15381588E-04  0.00000000E+00  0.00000000E+00
 -3.93204619E-04  8.53352526E-04  1.21949545E-04 -2.39983375E-05  0.00000000E+00
  7.01091924E-01  3.46548358E-02 -1.03874930E-04 -9.80165458E-05  0.00000000E+00
 -7.67212234E-03 -3.64913076E-04  2.02997272E-03  0.00000000E+00 -6.86699830E-03
 -6.54599441E-03 -6.86516726E-03 -1.15381588E-04  0.00000000E+00  0.00000000E+00
 -3.93204619E-04  8.53352526E-04 -1.21949545E-04  2.39983375E-05  0.00000000E+00
  3.33482431E-02  1.20648927E-03 -2.05175043E-05 -2.47230768E-04  0.00000000E+00
  3.63332784E-03  4.59423505E-04  1.68292198E-03  0.00000000E+00 -4.98391935E-04
 -5.22154414E-04 -4.49283895E-04  3.21537595E-05  0.00000000E+00  0.00000000E+00
 -9.64329398E-05 -1.61074043E-04 -4.92538780E-05  1.36759773E-05  0.00000000E+00
 -3.09870300E-05  3.05372262E-04  3.92602808E-05  4.31140511E-05  0.00000000E+00
  3.50148184E-02  1.46207713E-03 -4.02689538E-06  2.32402716E-04  0.00000000E+00
  3.03264002E-03 -7.38433284E-04 -1.29308512E-03  0.00000000E+00 -5.76421206E-04
 -6.64219440E-04 -3.89267284E-04  4.26326346E-05  0.00000000E+00  0.00000000E+00
 -7.80962204E-05 -2.64082166E-04  5.10258021E-05 -4.76562977E-05  0.00000000E+00
  1.41537473E-05  1.83155523E-04 -4.63291538E-05 -2.63069236E-05  0.00000000E+00
  7.01232944E-01  3.50394333E-02 -2.56523515E-04 -1.31320716E-04  0.00000000E+00
 -1.41153269E-02  2.70266288E-03  7.33808791E-04  0.00000000E+00 -6.11667772E-03
 -6.12327893E-03 -6.65911196E-03  8.15575188E-05  0.00000000E+00  0.00000000E+00
 -2.58936208E-04  1.19380725E-03  1.87839978E-04 -1.34122125E-04  0.00000000E+00
 -7.01232944E-01 -3.50394333E-02 -2.56523515E-04 -1.31320716E-04  0.00000000E+00
  1.41153269E-02  2.70266288E-03  7.33808791E-04  0.00000000E+00  6.11667772E-03
  6.12327893E-03  6.65911196E-03 -8.15575188E-05  0.00000000E+00  0.00000000E+00
  2.58936208E-04 -1.19380725E-03  1.87839978E-04 -1.34122125E-04  0.00000000E+00
 -3.50148184E-02 -1.46207713E-03 -4.02689538E-06  2.32402716E-04  0.00000000E+00
 -3.03264002E-03 -7.38433284E-04 -1.29308512E-03  0.00000000E+00  5.76421206E-04
  6.64219440E-04  3.89267284E-04 -4.26326346E-05  0.00000000E+00  0.00000000E+00
  7.80962204E-05  2.64082166E-04  5.10258021E-05 -4.76562977E-05  0.00000000E+00
 -1.41537473E-05 -1.83155523E-04 -4.63291538E-05 -2.63069236E-05  0.00000000E+00
  7.01169884E-01  3.46857619E-02 -5.78546470E-06 -1.21193010E-06  0.00000000E+00
 -8.74976932E-03 -2.39240657E-05  5.96388345E-04  0.00000000E+00 -6.50739240E-03
 -6.36640812E-03 -6.89052132E-03  2.81988126E-05  0.00000000E+00  0.00000000E+00
 -3.06963489E-04  1.47986962E-03 -1.59613574E-04  3.94687637E-05  0.00000000E+00
 -3.21515814E-04  1.46764868E-03  1.70374085E-04  5.16121047E-05  0.00000000E+00
 -3.37006805E-02 -2.06774046E-03 -3.70811247E-05 -2.53675269E-04  0.00000000E+00
  3.22952687E-03  1.59594726E-04  9.47311045E-04  0.00000000E+00  1.43958193E-04
  8.12643062E-05  2.18283123E-04  5.79126141E-05  0.00000000E+00  0.00000000E+00
 -4.30588802E-05 -1.85969947E-04 -5.67392124E-05  7.08879976E-05  0.00000000E+00
 -3.37006805E-02 -2.06774046E-03  3.70811247E-05  2.53675269E-04  0.00000000E+00
  3.22952687E-03 -1.59594726E-04 -9.47311045E-04  0.00000000E+00  1.43958193E-04
  8.12643062E-05  2.18283123E-04  5.79126141E-05  0.00000000E+00  0.00000000E+00
 -4.30588802E-05 -1.85969947E-04  5.67392124E-05 -7.08879976E-05  0.00000000E+00
  7.01169884E-01  3.46857619E-02  5.78546470E-06  1.21193010E-06  0.00000000E+00
 -8.74976932E-03  2.39240657E-05 -5.96388345E-04  0.00000000E+00 -6.50739240E-03
 -6.36640812E-03 -6.89052132E-03  2.81988126E-05  0.00000000E+00  0.00000000E+00
 -3.06963489E-04  1.47986962E-03  1.59613574E-04 -3.94687637E-05  0.00000000E+00
 -3.21515814E-04  1.46764868E-03 -1.70374085E-04 -5.16121047E-05  0.00000000E+00
  7.01108726E-01  3.47869604E-02 -1.28447612E-05  2.06071975E-05  0.00000000E+00
 -1.01187542E-02  1.86819427E-04  1.39222119E-03  0.00000000E+00 -6.49721619E-03
 -6.37353810E-03 -6.85196359E-03 -6.61961375E-06  0.00000000E+00  0.00000000E+00
 -2.50491983E-04  1.41041781E-03 -1.77528353E-04  3.27412535E-05  0.00000000E+00
 -2.99393251E-04  1.30319979E-03  1.76632686E-04  3.21654837E-05  0.00000000E+00
 -3.53569662E-02 -2.04488099E-03  2.92653113E-06 -3.46841566E-04  0.00000000E+00
  4.36512662E-03 -2.50388029E-05  2.03314769E-03  0.00000000E+00  2.92209406E-05
  2.27268402E-05  2.65339064E-04 -2.15693766E-05  0.00000000E+00  0.00000000E+00
  3.33742752E-05  2.33439223E-05 -9.57688031E-05  2.46078547E-05  0.00000000E+00
  3.53569662E-02  2.04488099E-03  2.92653113E-06 -3.46841566E-04  0.00000000E+00
 -4.36512662E-03 -2.50388029E-05  2.03314769E-03  0.00000000E+00 -2.92209406E-05
 -2.27268402E-05 -2.65339064E-04  2.15693766E-05  0.00000000E+00  0.00000000E+00
 -3.33742752E-05 -2.33439223E-05 -9.57688031E-05  2.46078547E-05  0.00000000E+00
 -7.01108726E-01 -3.47869604E-02 -1.28447612E-05  2.06071975E-05  0.00000000E+00
  1.01187542E-02  1.86819427E-04  1.39222119E-03  0.00000000E+00  6.49721619E-03
  6.37353810E-03  6.85196359E-03  6.61961375E-06  0.00000000E+00  0.00000000E+00
  2.50491983E-04 -1.41041781E-03 -1.77528353E-04  3.27412535E-05  0.00000000E+00
  2.99393251E-04 -1.30319979E-03  1.76632686E-04  3.21654837E-05  0.00000000E+00
 -9.02543017E-02  1.73288724E-01 -8.35605979E-03 -7.69751992E-02  0.00000000E+00
  1.31627561E-01  2.99605972E-04 -1.23963331E-02  0.00000000E+00 -5.83098511E-03
  5.33683865E-03 -9.64189935E-03  1.15492650E-03  0.00000000E+00  0.00000000E+00
  4.57778190E-02  1.10596225E-02  3.95268305E-03 -3.64180626E-03  0.00000000E+00
  4.05616097E-02  7.06310194E-03 -3.68438123E-03 -3.00618243E-03  0.00000000E+00
 -1.36748279E-01  2.66152102E-01 -4.95944576E-02  1.27749091E-02  0.00000000E+00
  1.67616668E-01 -2.36007777E-03 -1.74942932E-02  0.00000000E+00 -1.20639435E-03
  3.26818638E-03 -1.44979354E-02  5.86438411E-03  0.00000000E+00  0.00000000E+00
  6.91151922E-02  1.23849217E-02 -6.76753710E-03  3.83018492E-03  0.00000000E+00
 -1.36748279E-01  2.66152102E-01  4.95944576E-02 -1.27749091E-02  0.00000000E+00
  1.67616668E-01  2.36007777E-03  1.74942932E-02  0.00000000E+00 -1.20639435E-03
  3.26818638E-03 -1.44979354E-02  5.86438411E-03  0.00000000E+00  0.00000000E+00
  6.91151922E-02  1.23849217E-02  6.76753710E-03 -3.83018492E-03  0.00000000E+00
 -9.02543017E-02  1.73288724E-01  8.35605979E-03  7.69751992E-02  0.00000000E+00
  1.31627561E-01 -2.99605972E-04  1.23963331E-02  0.00000000E+00 -5.83098511E-03
  5.33683865E-03 -9.64189935E-03  1.15492650E-03  0.00000000E+00  0.00000000E+00
  4.57778190E-02  1.10596225E-02 -3.95268305E-03  3.64180626E-03  0.00000000E+00
  4.05616097E-02  7.06310194E-03  3.68438123E-03  3.00618243E-03  0.00000000E+00
 -1.31426408E-01  2.55291587E-01  6.19335409E-03 -6.75621080E-02  0.00000000E+00
  1.93714375E-01 -6.09446209E-03 -4.28606749E-03  0.00000000E+00 -6.66695364E-03
  2.45064870E-03 -1.34540021E-02 -4.69283225E-04  0.00000000E+00  0.00000000E+00
  7.45574984E-02  1.80672273E-02  6.41030834E-03 -4.74168938E-03  0.00000000E+00
  7.93257382E-02  2.63439691E-02 -6.55481519E-03 -5.26841689E-03  0.00000000E+00
 -8.61673789E-02  1.71345707E-01  3.47601631E-02  1.34227032E-01  0.00000000E+00
  1.12260952E-01  1.85870761E-02  2.55822931E-02  0.00000000E+00 -8.74042416E-03
  3.70415398E-03 -8.08096646E-03 -4.88865648E-03  0.00000000E+00  0.00000000E+00
  4.52874301E-02  9.45215393E-03 -3.56917897E-03  4.07704092E-03  0.00000000E+00
  8.61673789E-02 -1.71345707E-01  3.47601631E-02  1.34227032E-01  0.00000000E+00
 -1.12260952E-01  1.85870761E-02  2.55822931E-02  0.00000000E+00  8.74042416E-03
 -3.70415398E-03  8.08096646E-03  4.88865648E-03  0.00000000E+00  0.00000000E+00
 -4.52874301E-02 -9.45215393E-03 -3.56917897E-03  4.07704092E-03  0.00000000E+00
  1.31426408E-01 -2.55291587E-01  6.19335409E-03 -6.75621080E-02  0.00000000E+00
 -1.93714375E-01 -6.09446209E-03 -4.28606749E-03  0.00000000E+00  6.66695364E-03
 -2.45064870E-03  1.34540021E-02  4.69283225E-04  0.00000000E+00  0.00000000E+00
 -7.45574984E-02 -1.80672273E-02  6.41030834E-03 -4.74168938E-03  0.00000000E+00
 -7.93257382E-02 -2.63439691E-02 -6.55481519E-03 -5.26841689E-03  0.00000000E+00
 -1.12222517E-01  2.25682991E-01  2.70449373E-02  8.88518983E-02  0.00000000E+00
  2.03961175E-01  1.23848743E-02  3.34845161E-02  0.00000000E+00  8.56208876E-04
 -8.94456196E-03 -1.00563276E-02 -1.43214390E-03  0.00000000E+00  0.00000000E+00
  1.03525007E-01  4.75659702E-02  7.72929373E-03 -3.16674274E-03  0.00000000E+00
  1.23875502E-01  5.58371352E-02 -8.23034538E-03 -4.35793109E-03  0.00000000E+00
  7.27438815E-02 -1.49857600E-01  7.99104325E-02  1.58041225E-01  0.00000000E+00
 -1.31102241E-01  1.22487892E-02  4.28078044E-02  0.00000000E+00 -7.57082267E-03
  1.16240202E-02  6.33367329E-03 -3.81440854E-03  0.00000000E+00  0.00000000E+00
 -6.29151011E-02 -2.32821594E-02  5.49256244E-03 -4.23201531E-04  0.00000000E+00
  7.27438815E-02 -1.49857600E-01 -7.99104325E-02 -1.58041225E-01  0.00000000E+00
 -1.31102241E-01 -1.22487892E-02 -4.28078044E-02  0.00000000E+00 -7.57082267E-03
  1.16240202E-02  6.33367329E-03 -3.81440854E-03  0.00000000E+00  0.00000000E+00
 -6.29151011E-02 -2.32821594E-02 -5.49256244E-03  4.23201531E-04  0.00000000E+00
 -1.12222517E-01  2.25682991E-01 -2.70449373E-02 -8.88518983E-02  0.00000000E+00
  2.03961175E-01 -1.23848743E-02 -3.34845161E-02  0.00000000E+00  8.56208876E-04
 -8.94456196E-03 -1.00563276E-02 -1.43214390E-03  0.00000000E+00  0.00000000E+00
  1.03525007E-01  4.75659702E-02 -7.72929373E-03  3.16674274E-03  0.00000000E+00
  1.23875502E-01  5.58371352E-02  8.23034538E-03  4.35793109E-03  0.00000000E+00
  4.80578505E-02 -9.79401167E-02  8.84557409E-02 -1.21311062E-01  0.00000000E+00
 -8.84628689E-02  3.04884174E-02 -3.87203395E-02  0.00000000E+00 -4.60410285E-03
  8.37694738E-03  4.19351511E-03 -2.49489822E-03  0.00000000E+00  0.00000000E+00
 -1.13407116E-01 -6.86806168E-02 -5.28928667E-03  3.34966883E-03  0.00000000E+00
 -3.99714176E-02 -2.25274941E-02  3.85932922E-03 -5.93651245E-04  0.00000000E+00
 -8.57234359E-02  1.77336113E-01  1.74007887E-01 -6.79686284E-02  0.00000000E+00
  1.67913664E-01  4.84603447E-02 -3.52907323E-02  0.00000000E+00 -4.88856914E-03
 -4.01822584E-03 -6.90706492E-03 -4.93688969E-03  0.00000000E+00  0.00000000E+00
  1.69352949E-01  1.00204213E-01 -8.80060504E-03  4.92187857E-03  0.00000000E+00
  8.57234359E-02 -1.77336113E-01  1.74007887E-01 -6.79686284E-02  0.00000000E+00
 -1.67913664E-01  4.84603447E-02 -3.52907323E-02  0.00000000E+00  4.88856914E-03
  4.01822584E-03  6.90706492E-03  4.93688969E-03  0.00000000E+00  0.00000000E+00
 -1.69352949E-01 -1.00204213E-01 -8.80060504E-03  4.92187857E-03  0.00000000E+00
 -4.80578505E-02  9.79401167E-02  8.84557409E-02 -1.21311062E-01  0.00000000E+00
  8.84628689E-02  3.04884174E-02 -3.87203395E-02  0.00000000E+00  4.60410285E-03
 -8.37694738E-03 -4.19351511E-03  2.49489822E-03  0.00000000E+00  0.00000000E+00