 m062x/6-31+G**                                          
GAUSSIAN             29 MOL ORBITALS    291 PRIMITIVES       13 NUCLEI
  C    1    (CENTRE  1)   2.19127542  5.53000030  0.00000000  CHARGE =  6.0
  C    2    (CENTRE  2)   6.56981549  6.73643247  0.00000000  CHARGE =  6.0
  C    3    (CENTRE  3)   7.30154921  4.31807588  0.00000000  CHARGE =  6.0
  C    4    (CENTRE  4)   5.30689314  2.44836489  0.00000000  CHARGE =  6.0
  N    5    (CENTRE  5)   4.08591575  7.34465462  0.00000000  CHARGE =  7.0
  N    6    (CENTRE  6)   2.90584779  3.08295171  0.00000000  CHARGE =  7.0
  N    7    (CENTRE  7)   5.89231541  0.01844887  0.00000000  CHARGE =  7.0
  O    8    (CENTRE  8)   0.01501544  6.23077046  0.00000000  CHARGE =  8.0
  H    9    (CENTRE  9)   3.51187468  9.13375354  0.00000000  CHARGE =  1.0
  H   10    (CENTRE 10)   7.87916651  8.28420383  0.00000000  CHARGE =  1.0
  H   11    (CENTRE 11)   9.25604847  3.78840486  0.00000000  CHARGE =  1.0
  H   12    (CENTRE 12)   7.68216375 -0.53409103  0.00000000  CHARGE =  1.0
  H   13    (CENTRE 13)   4.51699261 -1.29856503  0.00000000  CHARGE =  1.0
CENTRE ASSIGNMENTS    1  1  1  1  1  1  1  1  1  1  1  1  1  1  1  1  1  1  1  1
CENTRE ASSIGNMENTS    1  1  1  1  1  1  1  1  1  1  1  1  2  2  2  2  2  2  2  2
CENTRE ASSIGNMENTS    2  2  2  2  2  2  2  2  2  2  2  2  2  2  2  2  2  2  2  2
CENTRE ASSIGNMENTS    2  2  2  2  3  3  3  3  3  3  3  3  3  3  3  3  3  3  3  3
CENTRE ASSIGNMENTS    3  3  3  3  3  3  3  3  3  3  3  3  3  3  3  3  4  4  4  4
CENTRE ASSIGNMENTS    4  4  4  4  4  4  4  4  4  4  4  4  4  4  4  4  4  4  4  4
CENTRE ASSIGNMENTS    4  4  4  4  4  4  4  4  5  5  5  5  5  5  5  5  5  5  5  5
CENTRE ASSIGNMENTS    5  5  5  5  5  5  5  5  5  5  5  5  5  5  5  5  5  5  5  5
CENTRE ASSIGNMENTS    6  6  6  6  6  6  6  6  6  6  6  6  6  6  6  6  6  6  6  6
CENTRE ASSIGNMENTS    6  6  6  6  6  6  6  6  6  6  6  6  7  7  7  7  7  7  7  7
CENTRE ASSIGNMENTS    7  7  7  7  7  7  7  7  7  7  7  7  7  7  7  7  7  7  7  7
CENTRE ASSIGNMENTS    7  7  7  7  8  8  8  8  8  8  8  8  8  8  8  8  8  8  8  8
CENTRE ASSIGNMENTS    8  8  8  8  8  8  8  8  8  8  8  8  8  8  8  8  9  9  9  9
CENTRE ASSIGNMENTS    9  9  9 10 10 10 10 10 10 10 11 11 11 11 11 11 11 12 12 12
CENTRE ASSIGNMENTS   12 12 12 12 13 13 13 13 13 13 13
TYPE ASSIGNMENTS      1  1  1  1  1  1  1  1  1  2  2  2  3  3  3  4  4  4  1  2
TYPE ASSIGNMENTS      3  4  1  2  3  4  5  6  7  8  9 10  1  1  1  1  1  1  1  1
TYPE ASSIGNMENTS      1  2  2  2  3  3  3  4  4  4  1  2  3  4  1  2  3  4  5  6
TYPE ASSIGNMENTS      7  8  9 10  1  1  1  1  1  1  1  1  1  2  2  2  3  3  3  4
TYPE ASSIGNMENTS      4  4  1  2  3  4  1  2  3  4  5  6  7  8  9 10  1  1  1  1
TYPE ASSIGNMENTS      1  1  1  1  1  2  2  2  3  3  3  4  4  4  1  2  3  4  1  2
TYPE ASSIGNMENTS      3  4  5  6  7  8  9 10  1  1  1  1  1  1  1  1  1  2  2  2
TYPE ASSIGNMENTS      3  3  3  4  4  4  1  2  3  4  1  2  3  4  5  6  7  8  9 10
TYPE ASSIGNMENTS      1  1  1  1  1  1  1  1  1  2  2  2  3  3  3  4  4  4  1  2
TYPE ASSIGNMENTS      3  4  1  2  3  4  5  6  7  8  9 10  1  1  1  1  1  1  1  1
TYPE ASSIGNMENTS      1  2  2  2  3  3  3  4  4  4  1  2  3  4  1  2  3  4  5  6
TYPE ASSIGNMENTS      7  8  9 10  1  1  1  1  1  1  1  1  1  2  2  2  3  3  3  4
TYPE ASSIGNMENTS      4  4  1  2  3  4  1  2  3  4  5  6  7  8  9 10  1  1  1  1
TYPE ASSIGNMENTS      2  3  4  1  1  1  1  2  3  4  1  1  1  1  2  3  4  1  1  1
TYPE ASSIGNMENTS      1  2  3  4  1  1  1  1  2  3  4
EXPONENTS  0.3047525D+04 0.4573695D+03 0.1039487D+03 0.2921016D+02 0.9286663D+01
EXPONENTS  0.3163927D+01 0.7868272D+01 0.1881289D+01 0.5442493D+00 0.7868272D+01
EXPONENTS  0.1881289D+01 0.5442493D+00 0.7868272D+01 0.1881289D+01 0.5442493D+00
EXPONENTS  0.7868272D+01 0.1881289D+01 0.5442493D+00 0.1687145D+00 0.1687145D+00
EXPONENTS  0.1687145D+00 0.1687145D+00 0.4380000D-01 0.4380000D-01 0.4380000D-01
EXPONENTS  0.4380000D-01 0.8000000D+00 0.8000000D+00 0.8000000D+00 0.8000000D+00
EXPONENTS  0.8000000D+00 0.8000000D+00 0.3047525D+04 0.4573695D+03 0.1039487D+03
EXPONENTS  0.2921016D+02 0.9286663D+01 0.3163927D+01 0.7868272D+01 0.1881289D+01
EXPONENTS  0.5442493D+00 0.7868272D+01 0.1881289D+01 0.5442493D+00 0.7868272D+01
EXPONENTS  0.1881289D+01 0.5442493D+00 0.7868272D+01 0.1881289D+01 0.5442493D+00
EXPONENTS  0.1687145D+00 0.1687145D+00 0.1687145D+00 0.1687145D+00 0.4380000D-01
EXPONENTS  0.4380000D-01 0.4380000D-01 0.4380000D-01 0.8000000D+00 0.8000000D+00
EXPONENTS  0.8000000D+00 0.8000000D+00 0.8000000D+00 0.8000000D+00 0.3047525D+04
EXPONENTS  0.4573695D+03 0.1039487D+03 0.2921016D+02 0.9286663D+01 0.3163927D+01
EXPONENTS  0.7868272D+01 0.1881289D+01 0.5442493D+00 0.7868272D+01 0.1881289D+01
EXPONENTS  0.5442493D+00 0.7868272D+01 0.1881289D+01 0.5442493D+00 0.7868272D+01
EXPONENTS  0.1881289D+01 0.5442493D+00 0.1687145D+00 0.1687145D+00 0.1687145D+00
EXPONENTS  0.1687145D+00 0.4380000D-01 0.4380000D-01 0.4380000D-01 0.4380000D-01
EXPONENTS  0.8000000D+00 0.8000000D+00 0.8000000D+00 0.8000000D+00 0.8000000D+00
EXPONENTS  0.8000000D+00 0.3047525D+04 0.4573695D+03 0.1039487D+03 0.2921016D+02
EXPONENTS  0.9286663D+01 0.3163927D+01 0.7868272D+01 0.1881289D+01 0.5442493D+00
EXPONENTS  0.7868272D+01 0.1881289D+01 0.5442493D+00 0.7868272D+01 0.1881289D+01
EXPONENTS  0.5442493D+00 0.7868272D+01 0.1881289D+01 0.5442493D+00 0.1687145D+00
EXPONENTS  0.1687145D+00 0.1687145D+00 0.1687145D+00 0.4380000D-01 0.4380000D-01
EXPONENTS  0.4380000D-01 0.4380000D-01 0.8000000D+00 0.8000000D+00 0.8000000D+00
EXPONENTS  0.8000000D+00 0.8000000D+00 0.8000000D+00 0.4173511D+04 0.6274579D+03
EXPONENTS  0.1429021D+03 0.4023433D+02 0.1282021D+02 0.4390437D+01 0.1162636D+02
EXPONENTS  0.2716280D+01 0.7722184D+00 0.1162636D+02 0.2716280D+01 0.7722184D+00
EXPONENTS  0.1162636D+02 0.2716280D+01 0.7722184D+00 0.1162636D+02 0.2716280D+01
EXPONENTS  0.7722184D+00 0.2120315D+00 0.2120315D+00 0.2120315D+00 0.2120315D+00
EXPONENTS  0.6390000D-01 0.6390000D-01 0.6390000D-01 0.6390000D-01 0.8000000D+00
EXPONENTS  0.8000000D+00 0.8000000D+00 0.8000000D+00 0.8000000D+00 0.8000000D+00
EXPONENTS  0.4173511D+04 0.6274579D+03 0.1429021D+03 0.4023433D+02 0.1282021D+02
EXPONENTS  0.4390437D+01 0.1162636D+02 0.2716280D+01 0.7722184D+00 0.1162636D+02
EXPONENTS  0.2716280D+01 0.7722184D+00 0.1162636D+02 0.2716280D+01 0.7722184D+00
EXPONENTS  0.1162636D+02 0.2716280D+01 0.7722184D+00 0.2120315D+00 0.2120315D+00
EXPONENTS  0.2120315D+00 0.2120315D+00 0.6390000D-01 0.6390000D-01 0.6390000D-01
EXPONENTS  0.6390000D-01 0.8000000D+00 0.8000000D+00 0.8000000D+00 0.8000000D+00
EXPONENTS  0.8000000D+00 0.8000000D+00 0.4173511D+04 0.6274579D+03 0.1429021D+03
EXPONENTS  0.4023433D+02 0.1282021D+02 0.4390437D+01 0.1162636D+02 0.2716280D+01
EXPONENTS  0.7722184D+00 0.1162636D+02 0.2716280D+01 0.7722184D+00 0.1162636D+02
EXPONENTS  0.2716280D+01 0.7722184D+00 0.1162636D+02 0.2716280D+01 0.7722184D+00
EXPONENTS  0.2120315D+00 0.2120315D+00 0.2120315D+00 0.2120315D+00 0.6390000D-01
EXPONENTS  0.6390000D-01 0.6390000D-01 0.6390000D-01 0.8000000D+00 0.8000000D+00
EXPONENTS  0.8000000D+00 0.8000000D+00 0.8000000D+00 0.8000000D+00 0.5484672D+04
EXPONENTS  0.8252349D+03 0.1880470D+03 0.5296450D+02 0.1689757D+02 0.5799635D+01
EXPONENTS  0.1553962D+02 0.3599934D+01 0.1013762D+01 0.1553962D+02 0.3599934D+01
EXPONENTS  0.1013762D+01 0.1553962D+02 0.3599934D+01 0.1013762D+01 0.1553962D+02
EXPONENTS  0.3599934D+01 0.1013762D+01 0.2700058D+00 0.2700058D+00 0.2700058D+00
EXPONENTS  0.2700058D+00 0.8450000D-01 0.8450000D-01 0.8450000D-01 0.8450000D-01
EXPONENTS  0.8000000D+00 0.8000000D+00 0.8000000D+00 0.8000000D+00 0.8000000D+00
EXPONENTS  0.8000000D+00 0.1873114D+02 0.2825394D+01 0.6401217D+00 0.1612778D+00
EXPONENTS  0.1100000D+01 0.1100000D+01 0.1100000D+01 0.1873114D+02 0.2825394D+01
EXPONENTS  0.6401217D+00 0.1612778D+00 0.1100000D+01 0.1100000D+01 0.1100000D+01
EXPONENTS  0.1873114D+02 0.2825394D+01 0.6401217D+00 0.1612778D+00 0.1100000D+01
EXPONENTS  0.1100000D+01 0.1100000D+01 0.1873114D+02 0.2825394D+01 0.6401217D+00
EXPONENTS  0.1612778D+00 0.1100000D+01 0.1100000D+01 0.1100000D+01 0.1873114D+02
EXPONENTS  0.2825394D+01 0.6401217D+00 0.1612778D+00 0.1100000D+01 0.1100000D+01
EXPONENTS  0.1100000D+01
MO    1     MO 0.0        OCC NO =    2.0000000  ORB. ENERGY =  -19.590236
  0.14811273D-04  0.27323906D-04  0.44109257D-04  0.57417147D-04  0.48994155D-04
  0.16916504D-04 -0.23206705D-03 -0.10695949D-03  0.29992558D-03 -0.20001175D-03
 -0.15335632D-03 -0.76535552D-04  0.60377810D-04  0.46293875D-04  0.23103888D-04
  0.18573479D-15  0.14240966D-15  0.71072401D-16  0.73847747D-04 -0.29873917D-03
  0.14971974D-03  0.37319594D-16 -0.91156001D-04 -0.61725405D-04  0.22545223D-04
 -0.21784824D-16 -0.62524908D-03 -0.63898673D-04 -0.11316144D-03  0.42953459D-03
  0.73570371D-15 -0.31349248D-16  0.10385042D-05  0.19158374D-05  0.30927557D-05
  0.40258489D-05  0.34352642D-05  0.11861142D-05 -0.10641714D-04 -0.49047564D-05
  0.13753449D-04  0.28459569D-04  0.21820992D-04  0.10890204D-04  0.12994059D-05
  0.99630200D-06  0.49722452D-06  0.25286407D-15  0.19388013D-15  0.96759774D-16
 -0.18529867D-03  0.56347637D-04  0.42426429D-04  0.12489404D-16  0.17893887D-03
 -0.33199821D-05 -0.11455318D-04  0.37950266D-16  0.41481753D-05 -0.55062409D-05
  0.15575900D-05 -0.11464476D-03 -0.24991496D-15 -0.28162037D-15 -0.12076533D-05
 -0.22278846D-05 -0.35964965D-05 -0.46815698D-05 -0.39947920D-05 -0.13793057D-05
  0.40683166D-05  0.18750834D-05 -0.52579296D-05  0.92079324D-05  0.70600586D-05
  0.35234640D-05  0.13910077D-04  0.10665365D-04  0.53227645D-05 -0.20906072D-15
 -0.16029450D-15 -0.79998189D-16  0.43680003D-04 -0.38213242D-04  0.27271951D-04
 -0.62029264D-16 -0.42319462D-03  0.23909512D-04  0.18425017D-05 -0.33722910D-16
  0.58329634D-05 -0.17055224D-04 -0.61073682D-06 -0.24557979D-04  0.13936854D-16
  0.44722044D-18 -0.31521964D-05 -0.58151869D-05 -0.93875147D-05 -0.12219755D-04
 -0.10427139D-04 -0.36002405D-05 -0.12917653D-05 -0.59537347D-06  0.16694893D-05
 -0.13359114D-04 -0.10242921D-04 -0.51119355D-05 -0.34261408D-04 -0.26269475D-04
 -0.13110309D-04  0.66806288D-15  0.51222824D-15  0.25563779D-15 -0.18465704D-03
  0.59851131D-04  0.29119529D-04  0.92343164D-16  0.36526753D-03  0.43278713D-04
  0.41793691D-04 -0.15430323D-17  0.45050331D-04 -0.78942515D-04 -0.14084740D-04
  0.72635890D-04 -0.68972564D-15 -0.18434858D-15 -0.18767939D-04 -0.34562729D-04
 -0.55843953D-04 -0.73087730D-04 -0.62606191D-04 -0.21537255D-04  0.38525069D-04
  0.19044900D-04 -0.50239226D-04  0.35937017D-04  0.27977542D-04  0.13284726D-04
  0.14291600D-03  0.11126239D-03  0.52831318D-04  0.66733517D-15  0.51953109D-15
  0.24669174D-15  0.18070208D-03  0.10384310D-03 -0.17043389D-03 -0.41992984D-16
  0.81913536D-04  0.18712726D-05 -0.29630607D-04 -0.17631116D-16 -0.24908135D-03
  0.60417500D-04 -0.97650071D-04 -0.55693130D-04  0.28107984D-15  0.30773999D-15
 -0.28276403D-04 -0.52073360D-04 -0.84136362D-04 -0.11011641D-03 -0.94324575D-04
 -0.32448747D-04  0.72027252D-04  0.35606733D-04 -0.93928279D-04 -0.55498022D-05
 -0.43206096D-05 -0.20515783D-05 -0.42034262D-04 -0.32724344D-04 -0.15538676D-04
 -0.31233132D-15 -0.24315492D-15 -0.11545856D-15  0.36385221D-03  0.12301012D-03
  0.92340839D-04 -0.22344139D-15  0.11734593D-03 -0.22653220D-04  0.13873941D-04
  0.39839797D-16 -0.17498675D-03 -0.21175335D-04 -0.13659598D-03  0.31087488D-03
  0.92455889D-15 -0.15532909D-15 -0.52644001D-05 -0.96948327D-05 -0.15664208D-04
 -0.20501081D-04 -0.17561014D-04 -0.60411921D-05  0.17969060D-04  0.88830197D-05
 -0.23432837D-04  0.88908159D-06  0.69216422D-06  0.32866405D-06  0.24334047D-04
  0.18944444D-04  0.89954923D-05  0.27055747D-15  0.21063331D-15  0.10001615D-15
  0.81033555D-04 -0.41633880D-04  0.43256115D-04 -0.12042420D-15 -0.47044114D-05
 -0.26282926D-04 -0.95488518D-05  0.22754796D-17 -0.30791474D-04  0.28955919D-04
 -0.21132468D-04 -0.17227378D-04  0.19260502D-15 -0.10799756D-15  0.82669489D+00
  0.15215599D+01  0.24621711D+01  0.32365929D+01  0.27760069D+01  0.94916391D+00
 -0.14036918D-01 -0.62632454D-02  0.18495448D-01  0.48496529D-02  0.37363961D-02
  0.16404791D-02 -0.13218752D-02 -0.10184336D-02 -0.44714719D-03  0.10472837D-14
  0.80687566D-15  0.35426187D-15  0.18839663D-02 -0.38350233D-03  0.94984507D-04
  0.86300809D-17 -0.52726983D-03  0.10366714D-05  0.73977422D-05  0.21493854D-16
 -0.64627990D-02 -0.65448434D-02 -0.66077121D-02 -0.75076163D-04 -0.93893838D-15
 -0.16567835D-14  0.89790802D-05  0.15230220D-04  0.17339067D-04  0.93488479D-04
 -0.29692279D-04  0.15295505D-04  0.27227504D-15  0.42543407D-05  0.72161671D-05
  0.82153512D-05 -0.19030620D-04 -0.20462319D-04 -0.23254469D-04 -0.34200707D-15
  0.44833252D-06  0.76045682D-06  0.86575321D-06  0.28981323D-04  0.47480740D-09
 -0.81074480D-05 -0.24698017D-15  0.51408649D-06  0.87198799D-06  0.99272750D-06
  0.41942403D-04 -0.19643783D-04 -0.36161420D-05 -0.34088075D-17 -0.15854900D-05
 -0.26892912D-05 -0.30616629D-05 -0.27824094D-04  0.15362870D-05 -0.10333189D-04
 -0.39235785D-15
MO    2     MO 0.0        OCC NO =    2.0000000  ORB. ENERGY =  -14.818817
  0.64287187D-07  0.11859731D-06  0.19145283D-06  0.24921469D-06  0.21265535D-06
  0.73424782D-07 -0.23384326D-04 -0.10777815D-04  0.30222117D-04  0.29782861D-03
  0.22835609D-03  0.11396569D-03  0.28981848D-03  0.22221443D-03  0.11090057D-03
  0.55591701D-15  0.42624190D-15  0.21272458D-15  0.31239822D-03  0.34279427D-03
  0.39596170D-04 -0.35203271D-16 -0.18570328D-04  0.25164379D-05  0.33354438D-05
  0.41219590D-16  0.57164206D-04  0.39515530D-04 -0.96250730D-04  0.53978550D-04
 -0.59374509D-15  0.36870743D-16  0.36664909D-05  0.67639597D-05  0.10919128D-04
  0.14213461D-04  0.12128372D-04  0.41876353D-05 -0.42564471D-04 -0.19617926D-04
  0.55010712D-04 -0.32921997D-03 -0.25242499D-03 -0.12597776D-03  0.11013339D-03
  0.84443300D-04  0.42143125D-04 -0.61478822D-16 -0.47138062D-16 -0.23525196D-16
  0.54164535D-03 -0.25711113D-03 -0.17484451D-03  0.10993393D-15  0.61437863D-04
  0.58016307D-05 -0.13393713D-04 -0.46354156D-16 -0.70499911D-04  0.34989557D-04
 -0.11077068D-03  0.10001471D-03 -0.49961749D-15  0.73771780D-16  0.85993724D-05
  0.15864163D-04  0.25609678D-04  0.33336191D-04  0.28445832D-04  0.98216623D-05
 -0.53228134D-04 -0.24532798D-04  0.68792527D-04  0.22126094D-06  0.16964886D-06
  0.84666670D-07 -0.91142878D-04 -0.69882578D-04 -0.34876304D-04 -0.60355385D-16
 -0.46276681D-16 -0.23095307D-16 -0.34828591D-03  0.25279647D-03 -0.38912019D-04
 -0.11852016D-15 -0.13193302D-03  0.10851404D-04 -0.56399644D-05  0.68218379D-16
 -0.67936463D-04 -0.40821694D-04  0.12763070D-04  0.13030151D-03  0.47084732D-16
 -0.10934275D-15 -0.77255670D-05 -0.14252163D-04 -0.23007409D-04 -0.29948811D-04
 -0.25555375D-04 -0.88236567D-05  0.26987892D-04  0.12438695D-04 -0.34879399D-04
 -0.25308635D-04 -0.19405056D-04 -0.96844830D-05  0.30397123D-04  0.23306586D-04
  0.11631620D-04 -0.27151016D-17 -0.20817677D-17 -0.10389480D-17  0.42950996D-03
 -0.16733338D-04  0.87458782D-04  0.40117219D-16  0.11683882D-03 -0.87559206D-05
  0.12831429D-04 -0.92760377D-16  0.49588388D-05 -0.71965391D-05 -0.39195114D-04
  0.10808217D-04 -0.25102618D-15 -0.50737740D-16  0.67489669D+00  0.12428786D+01
  0.20081533D+01  0.26282410D+01  0.22513239D+01  0.77448152D+00 -0.15458830D-01
 -0.76420858D-02  0.20159333D-01  0.50421743D-03  0.39254132D-03  0.18639250D-03
 -0.10316829D-04 -0.80318158D-05 -0.38137903D-05 -0.14792455D-15 -0.11516162D-15
 -0.54682813D-16 -0.43428761D-03 -0.12839893D-03  0.36644881D-03 -0.56326185D-16
 -0.41121126D-04 -0.76517354D-06  0.24013338D-04  0.78821192D-17 -0.66981827D-02
 -0.65589853D-02 -0.66515748D-02 -0.18559729D-03 -0.67027449D-16  0.31973179D-15
 -0.36791197D-04 -0.67754063D-04 -0.10947211D-03 -0.14327546D-03 -0.12272827D-03
 -0.42219946D-04 -0.60472630D-04 -0.29894696D-04  0.78860291D-04  0.49288426D-04
  0.38371827D-04  0.18220301D-04 -0.90349508D-04 -0.70338535D-04 -0.33399224D-04
  0.65856810D-15  0.51270578D-15  0.24345084D-15 -0.29490414D-03 -0.17538651D-03
 -0.81506777D-04 -0.64754745D-16 -0.10604975D-03 -0.20026946D-04  0.10099436D-04
  0.31416177D-16  0.28576588D-04 -0.55856419D-04  0.46046095D-04 -0.11116106D-03
  0.41841002D-15 -0.51547945D-15  0.26683004D-04  0.49138980D-04  0.79395205D-04
  0.10391126D-03  0.89009303D-04  0.30620232D-04 -0.16019294D-04 -0.79191516D-05
  0.20890214D-04  0.22474223D-04  0.17496541D-04  0.83079768D-05 -0.10915187D-04
 -0.84976470D-05 -0.40349834D-05 -0.31545590D-16 -0.24558745D-16 -0.11661361D-16
 -0.52629070D-04 -0.13906597D-04 -0.27496535D-04 -0.81915140D-16  0.26892532D-04
 -0.20914394D-05  0.42255139D-05  0.53166075D-16  0.10982145D-04  0.94659993D-06
  0.15777415D-04  0.16762664D-04  0.39809199D-15  0.38413328D-15 -0.19065386D-04
 -0.35090488D-04 -0.56783033D-04 -0.74642887D-04 -0.64020770D-04 -0.21889789D-04
  0.77962543D-04  0.34786735D-04 -0.10272569D-03 -0.12878940D-03 -0.99225293D-04
 -0.43565248D-04  0.47129567D-04  0.36310790D-04  0.15942393D-04  0.29166347D-15
  0.22471098D-15  0.98660224D-16  0.26091418D-03  0.29576757D-04 -0.88352445D-04
 -0.94614272D-16  0.48417368D-04  0.82242617D-05 -0.48119587D-05 -0.30060895D-16
 -0.15831295D-03 -0.42946077D-04 -0.88932678D-04 -0.11588753D-03  0.97442395D-16
 -0.14293838D-15  0.26468082D-04  0.44894876D-04  0.51111230D-04 -0.13099563D-03
 -0.62905601D-04  0.24480931D-03  0.84257648D-16 -0.46969175D-05 -0.79668610D-05
 -0.90699897D-05  0.10153531D-03  0.16013047D-03 -0.16172237D-04 -0.53440050D-16
 -0.10264524D-04 -0.17410575D-04 -0.19821324D-04 -0.10356228D-03 -0.32972588D-04
 -0.14019301D-04  0.15727149D-15  0.60022920D-05  0.10181023D-04  0.11590735D-04
  0.81832752D-05 -0.68703671D-05  0.14197590D-04  0.25249853D-15 -0.17305141D-05
 -0.29352794D-05 -0.33417119D-05 -0.19962809D-05 -0.11466797D-04  0.50593341D-05
 -0.45862673D-15
MO    3     MO 0.0        OCC NO =    2.0000000  ORB. ENERGY =  -14.802386
 -0.14117066D-04 -0.26043230D-04 -0.42041848D-04 -0.54725994D-04 -0.46697790D-04
 -0.16123625D-04  0.42065904D-04  0.19388137D-04 -0.54366359D-04 -0.20593871D-05
 -0.15790074D-05 -0.78803536D-06  0.20768563D-04  0.15924017D-04  0.79472005D-05
  0.29798451D-16  0.22847562D-16  0.11402535D-16 -0.71589797D-04  0.14498197D-03
 -0.17253918D-04 -0.51374408D-16  0.52780114D-04  0.15192988D-04 -0.19448098D-05
  0.15192177D-16 -0.82926487D-04 -0.26208082D-05 -0.42978642D-04  0.46016494D-04
  0.14605271D-15 -0.60276634D-15 -0.57429268D-05 -0.10594579D-04 -0.17102935D-04
 -0.22262940D-04 -0.18997007D-04 -0.65592099D-05  0.16142974D-04  0.74402820D-05
 -0.20863327D-04  0.36842826D-05  0.28248742D-05  0.14098102D-05  0.46217220D-04
  0.35436433D-04  0.17685264D-04 -0.74872206D-16 -0.57407258D-16 -0.28650245D-16
 -0.74520340D-04 -0.45972733D-04  0.15671712D-04 -0.58310670D-16  0.10370623D-05
 -0.54183451D-05 -0.10310700D-05  0.37960151D-16  0.92354968D-06 -0.81807247D-05
 -0.37308329D-04 -0.41753066D-04 -0.20069302D-15 -0.33121965D-15 -0.78702785D-05
 -0.14519127D-04 -0.23438373D-04 -0.30509798D-04 -0.26034065D-04 -0.89889372D-05
  0.15537239D-04  0.71610994D-05 -0.20080470D-04  0.31281394D-04  0.23984589D-04
  0.11969991D-04  0.42138099D-06  0.32308821D-06  0.16124366D-06 -0.11835990D-15
 -0.90750868D-16 -0.45291043D-16  0.14126974D-03 -0.12242338D-03  0.10406987D-03
  0.12292703D-15  0.92916981D-04 -0.68095554D-05  0.47003878D-05 -0.37491622D-16
  0.46091854D-04 -0.11620134D-03 -0.53464741D-04 -0.45754479D-04  0.12771107D-15
 -0.13579695D-15  0.21933109D-04  0.40462303D-04  0.65318704D-04  0.85025544D-04
  0.72552451D-04  0.25050618D-04 -0.92820010D-04 -0.42780658D-04  0.11996143D-03
  0.37090948D-04  0.28438987D-04  0.14193047D-04 -0.22542575D-03 -0.17284217D-03
 -0.86260355D-04  0.38558024D-15  0.29563847D-15  0.14754432D-15  0.24799390D-03
  0.11877174D-03 -0.38879118D-03 -0.14618919D-15 -0.15395453D-03  0.95320004D-06
 -0.26246520D-04 -0.31765401D-16 -0.54748372D-05 -0.57512883D-04 -0.45929152D-04
  0.35081630D-04 -0.31655902D-15 -0.29958708D-15 -0.19138069D-04 -0.35244354D-04
 -0.56945274D-04 -0.74529122D-04 -0.63840872D-04 -0.21962000D-04 -0.12756265D-04
 -0.63060705D-05  0.16635010D-04  0.28402981D-06  0.22112174D-06  0.10499642D-06
  0.67357723D-05  0.52439063D-05  0.24899922D-05  0.16834454D-15  0.13105892D-15
  0.62231409D-16 -0.99325069D-04 -0.15653078D-04  0.34385306D-04 -0.32191080D-16
 -0.62408328D-04 -0.23869318D-05 -0.32690079D-05 -0.11266804D-16  0.11147126D-04
 -0.95692035D-05  0.80558772D-05  0.11323993D-04 -0.67296390D-16  0.16092340D-15
 -0.11231120D-03 -0.20683045D-03 -0.33418166D-03 -0.43737196D-03 -0.37464828D-03
 -0.12888335D-03  0.48650465D-04  0.24050398D-04 -0.63443409D-04 -0.42792599D-04
 -0.33314722D-04 -0.15819008D-04  0.19211533D-04  0.14956486D-04  0.71018684D-05
 -0.18494815D-15 -0.14398509D-15 -0.68369212D-16  0.16289708D-03  0.33244117D-04
  0.81059180D-04  0.63302534D-16 -0.14738454D-04 -0.28481156D-04  0.21694788D-04
  0.35048173D-16 -0.27655838D-04 -0.88547514D-04 -0.95423463D-04  0.13653673D-03
 -0.88777353D-16  0.19789014D-15  0.67487840D+00  0.12428450D+01  0.20080989D+01
  0.26281697D+01  0.22512629D+01  0.77446053D+00 -0.15395480D-01 -0.76107686D-02
  0.20076720D-01  0.20892927D-03  0.16265477D-03  0.77234238D-04  0.15720128D-03
  0.12238371D-03  0.58112114D-04  0.55962331D-15  0.43567569D-15  0.20687423D-15
 -0.22650068D-03  0.44930880D-04 -0.27174312D-03 -0.18758532D-16  0.68232768D-04
 -0.94498195D-05  0.23958340D-04  0.54460049D-16 -0.64940027D-02 -0.66607326D-02
 -0.67477436D-02  0.13114892D-04  0.46852886D-15  0.77994298D-16 -0.19518449D-04
 -0.35924365D-04 -0.58132404D-04 -0.76416672D-04 -0.65542135D-04 -0.22409969D-04
  0.72039341D-04  0.32143814D-04 -0.94921112D-04 -0.12110389D-04 -0.93304021D-05
 -0.40965491D-05  0.65079531D-05  0.50140271D-05  0.22014279D-05  0.19683686D-15
  0.15165219D-15  0.66583481D-16  0.23816247D-03  0.89624046D-04 -0.35353628D-04
  0.12769038D-15  0.34343335D-05 -0.56838080D-05  0.69054262D-05 -0.29662817D-16
 -0.18916412D-04 -0.76363731D-04 -0.73671337D-04 -0.46569677D-04 -0.53667149D-15
 -0.12826126D-14 -0.19074890D-05 -0.32354624D-05 -0.36834596D-05  0.14274356D-04
  0.78519464D-06 -0.18815143D-04  0.44203670D-15  0.48099915D-05  0.81586559D-05
  0.92883414D-05  0.28312349D-04 -0.54462133D-05 -0.24216057D-04 -0.32247429D-15
  0.70755964D-05  0.12001551D-04  0.13663341D-04  0.69917240D-04  0.11706254D-04
 -0.18528953D-04 -0.14019484D-15  0.43249909D-04  0.73360032D-04  0.83517803D-04
 -0.24387375D-04  0.27971909D-03 -0.14674194D-04  0.32696900D-15  0.53213292D-04
  0.90259816D-04  0.10275761D-03 -0.40290210D-04 -0.16317971D-03 -0.70125557D-04
 -0.22769118D-15
MO    4     MO 0.0        OCC NO =    2.0000000  ORB. ENERGY =  -14.740890
  0.24560786D-05  0.45309853D-05  0.73144152D-05  0.95211953D-05  0.81244532D-05
  0.28051785D-05 -0.87494015D-04 -0.40325912D-04  0.11307807D-03  0.14358644D-03
  0.11009297D-03  0.54944109D-04 -0.30327495D-03 -0.23253200D-03 -0.11604976D-03
 -0.43783991D-15 -0.33570787D-15 -0.16754175D-15  0.54027810D-03  0.54778129D-03
 -0.41591865D-03  0.10203928D-15 -0.67319232D-04 -0.10906709D-04 -0.24790135D-04
  0.45191537D-17  0.12692688D-04 -0.31962688D-03 -0.98217697D-04  0.20329557D-03
  0.44705342D-15  0.68977437D-15 -0.93920445D-05 -0.17326488D-04 -0.27970324D-04
 -0.36409051D-04 -0.31067910D-04 -0.10727003D-04  0.32432307D-04  0.14948021D-04
 -0.41915811D-04 -0.66175573D-04 -0.50739232D-04 -0.25322433D-04 -0.73111455D-05
 -0.56057227D-05 -0.27976485D-05 -0.54643530D-16 -0.41897193D-16 -0.20909636D-16
  0.66724327D-03 -0.12006014D-03 -0.16031491D-03 -0.16627365D-17  0.55076185D-03
 -0.10736304D-06 -0.54370848D-04  0.28694367D-16 -0.49233891D-05 -0.25474876D-04
 -0.36600393D-04 -0.24845240D-06  0.38211280D-15 -0.32881534D-15  0.80434108D-05
  0.14838522D-04  0.23953976D-04  0.31180959D-04  0.26606769D-04  0.91866780D-05
 -0.49420824D-04 -0.22778013D-04  0.63871925D-04  0.34979378D-04  0.26819968D-04
  0.13385044D-04  0.45675272D-04  0.35020902D-04  0.17477884D-04 -0.49214797D-15
 -0.37734784D-15 -0.18832302D-15 -0.33158696D-03  0.31531756D-03 -0.23658610D-03
  0.50459387D-16  0.50689642D-04 -0.59418063D-05 -0.85523918D-04 -0.53099613D-16
 -0.16861260D-03  0.71663113D-04  0.43669345D-05 -0.23324612D-04 -0.18685718D-15
 -0.12114906D-14  0.16512857D-04  0.30462997D-04  0.49176723D-04  0.64013482D-04
  0.54622820D-04  0.18859947D-04 -0.11649579D-03 -0.53692805D-04  0.15056023D-03
 -0.15837002D-03 -0.12142808D-03 -0.60601124D-04  0.64416808D-04  0.49390722D-04
  0.24649432D-04  0.29227223D-15  0.22409580D-15  0.11183951D-15  0.73009941D-03
 -0.51139424D-03  0.43997578D-03 -0.60612965D-16 -0.41215928D-03 -0.11467545D-03
 -0.32972322D-04  0.60381408D-16 -0.38649437D-03  0.10372289D-04 -0.82703846D-04
  0.20858656D-03  0.37537570D-15  0.66769136D-16  0.63350141D-04  0.11666458D-03
  0.18849817D-03  0.24670359D-03  0.21132373D-03  0.72697813D-04 -0.47381277D-04
 -0.23422974D-04  0.61788305D-04  0.16793421D-03  0.13073947D-03  0.62079723D-04
  0.87700132D-05  0.68275953D-05  0.32419838D-05  0.12416130D-14  0.96661559D-15
  0.45898327D-15 -0.33782359D-03 -0.19878055D-03  0.33338823D-03 -0.34515077D-16
 -0.19493340D-03 -0.38374602D-04  0.67778136D-04 -0.27712863D-16  0.66672114D-04
 -0.89624613D-04 -0.72750933D-05 -0.93572915D-04 -0.23897085D-15 -0.64426544D-15
  0.67498767D+00  0.12430462D+01  0.20084240D+01  0.26285952D+01  0.22516274D+01
  0.77458591D+00 -0.15627285D-01 -0.77253613D-02  0.20379008D-01  0.29983860D-02
  0.23342914D-02  0.11084041D-02  0.26538538D-02  0.20660675D-02  0.98104195D-03
 -0.33633987D-15 -0.26184596D-15 -0.12433372D-15 -0.14417796D-02 -0.65455594D-03
 -0.57396726D-03 -0.14863190D-16 -0.29706638D-03  0.58912221D-04  0.33083334D-04
 -0.37695333D-16 -0.63520211D-02 -0.64164250D-02 -0.63134903D-02 -0.30101009D-03
 -0.12925516D-15 -0.89093519D-15  0.83256757D-04  0.15332427D-03  0.24773026D-03
  0.32422565D-03  0.27772833D-03  0.95541762D-04  0.47205117D-04  0.23335889D-04
 -0.61558581D-04 -0.61873584D-04 -0.48169573D-04 -0.22872617D-04 -0.11353245D-03
 -0.88386828D-04 -0.41969192D-04 -0.21180524D-15 -0.16489376D-15 -0.78297392D-16
  0.33245132D-03  0.17884919D-03  0.12890988D-03  0.92841747D-16  0.92423100D-04
  0.40381818D-04  0.17721923D-04 -0.31666205D-16 -0.69942727D-04 -0.32410179D-04
 -0.72936345D-04  0.24059758D-03  0.51932251D-15 -0.30145372D-15 -0.33513316D-04
 -0.61682392D-04 -0.99813754D-04 -0.13120797D-03 -0.11253632D-03 -0.38478078D-04
  0.13753596D-03  0.61368278D-04 -0.18122135D-03 -0.14011149D-03 -0.10794835D-03
 -0.47395141D-04  0.30538636D-04  0.23528373D-04  0.10330223D-04  0.65363420D-16
  0.50358991D-16  0.22110310D-16  0.51693608D-03  0.17591034D-03  0.59598694D-04
  0.98117820D-17  0.19016201D-03  0.34937641D-04 -0.16276807D-04  0.55986848D-17
 -0.37275098D-04 -0.21494767D-03 -0.13317730D-03  0.25676996D-03 -0.21188022D-14
 -0.50616004D-14 -0.28561142D-04 -0.48445102D-04 -0.55153036D-04 -0.14794736D-03
  0.20057960D-04  0.19688594D-04 -0.28805282D-17 -0.45131712D-05 -0.76551925D-05
 -0.87151661D-05  0.32349507D-04  0.12880853D-04  0.20071704D-04  0.10798068D-15
 -0.19206319D-04 -0.32577552D-04 -0.37088392D-04 -0.17814541D-03 -0.15235503D-04
  0.70928623D-04 -0.30116638D-15 -0.17504856D-04 -0.29691550D-04 -0.33802780D-04
 -0.12530757D-03 -0.95634175D-05 -0.49062076D-04  0.17017154D-15  0.12094587D-04
  0.20514709D-04  0.23355271D-04  0.94328094D-04 -0.29411939D-04 -0.22395456D-04
 -0.49256607D-15
MO    5     MO 0.0        OCC NO =    2.0000000  ORB. ENERGY =  -10.664644
  0.53329879D+00  0.98383214D+00  0.15882101D+01  0.20673777D+01  0.17640971D+01
  0.60910034D+00 -0.16670602D-01 -0.76834653D-02  0.21545239D-01  0.60866916D-03
  0.46668890D-03  0.23291047D-03  0.31904001D-03  0.24461964D-03  0.12208235D-03
 -0.17030441D-15 -0.13057862D-15 -0.65167882D-16 -0.27390375D-02 -0.76418839D-03
  0.17736765D-03  0.91943436D-16 -0.14379276D-02 -0.20304288D-03  0.57149647D-04
  0.43973240D-16 -0.64634152D-02 -0.67083302D-02 -0.73406410D-02 -0.16758298D-03
  0.14189094D-14 -0.90950525D-15 -0.59272772D-04 -0.10934669D-03 -0.17651946D-03
 -0.22977589D-03 -0.19606819D-03 -0.67697633D-04  0.42261466D-04  0.19478271D-04
 -0.54619105D-04  0.16902334D-03  0.12959638D-03  0.64677676D-04 -0.39596275D-04
 -0.30359912D-04 -0.15151724D-04  0.59117002D-16  0.45327168D-16  0.22621433D-16
 -0.14703804D-03 -0.23651593D-05 -0.16934256D-03  0.49755361D-16  0.11176680D-03
 -0.15498283D-03  0.75844284D-04  0.17106813D-16  0.12667994D-03  0.12134944D-03
 -0.25111127D-04  0.53685951D-04 -0.24758097D-15 -0.31028755D-15  0.22785039D-05
  0.42033948D-05  0.67855826D-05  0.88328124D-05  0.75370548D-05  0.26023639D-05
 -0.71463428D-04 -0.32937428D-04  0.92359988D-04  0.44039065D-04  0.33766362D-04
  0.16851781D-04  0.15999320D-04  0.12267264D-04  0.61222243D-05 -0.79556150D-16
 -0.60998610D-16 -0.30442582D-16 -0.59908918D-03  0.31440599D-03 -0.43529942D-04
 -0.36657074D-16  0.38575342D-03  0.69043596D-04  0.68894080D-04 -0.16125029D-16
 -0.32526167D-04  0.33283274D-04  0.33696577D-04 -0.12687412D-04  0.51452947D-15
 -0.25463027D-15 -0.96211279D-04 -0.17749102D-03 -0.28652555D-03 -0.37297113D-03
 -0.31825694D-03 -0.10988647D-03  0.59380815D-04  0.27368563D-04 -0.76744309D-04
  0.93570181D-04  0.71743680D-04  0.35805125D-04 -0.12916153D-03 -0.99032866D-04
 -0.49424341D-04 -0.31882831D-15 -0.24445733D-15 -0.12200134D-15 -0.57752555D-03
  0.14567634D-03  0.68985071D-03  0.62015167D-16  0.56772188D-03 -0.12059453D-03
 -0.12665243D-04  0.19177965D-17  0.76505570D-04  0.49306936D-04 -0.49609460D-05
 -0.45025593D-05 -0.17461161D-15  0.96218246D-15 -0.11608499D-03 -0.21378021D-03