 b3lyp/6-31G** opted                                     
GAUSSIAN              7 MOL ORBITALS     70 PRIMITIVES        4 NUCLEI
  C    1    (CENTRE  1)   0.00000000  0.00000000  1.13889176  CHARGE =  6.0
  H    2    (CENTRE  2)   0.00000000  0.00000000  3.15282320  CHARGE =  1.0
  C    3    (CENTRE  3)   0.00000000  0.00000000 -1.13889176  CHARGE =  6.0
  H    4    (CENTRE  4)   0.00000000  0.00000000 -3.15282320  CHARGE =  1.0
CENTRE ASSIGNMENTS    1  1  1  1  1  1  1  1  1  1  1  1  1  1  1  1  1  1  1  1
CENTRE ASSIGNMENTS    1  1  1  1  1  1  1  1  2  2  2  2  2  2  2  3  3  3  3  3
CENTRE ASSIGNMENTS    3  3  3  3  3  3  3  3  3  3  3  3  3  3  3  3  3  3  3  3
CENTRE ASSIGNMENTS    3  3  3  4  4  4  4  4  4  4
TYPE ASSIGNMENTS      1  1  1  1  1  1  1  1  1  2  2  2  3  3  3  4  4  4  1  2
TYPE ASSIGNMENTS      3  4  5  6  7  8  9 10  1  1  1  1  2  3  4  1  1  1  1  1
TYPE ASSIGNMENTS      1  1  1  1  2  2  2  3  3  3  4  4  4  1  2  3  4  5  6  7
TYPE ASSIGNMENTS      8  9 10  1  1  1  1  2  3  4
EXPONENTS  0.3047525D+04 0.4573695D+03 0.1039487D+03 0.2921016D+02 0.9286663D+01
EXPONENTS  0.3163927D+01 0.7868272D+01 0.1881289D+01 0.5442493D+00 0.7868272D+01
EXPONENTS  0.1881289D+01 0.5442493D+00 0.7868272D+01 0.1881289D+01 0.5442493D+00
EXPONENTS  0.7868272D+01 0.1881289D+01 0.5442493D+00 0.1687145D+00 0.1687145D+00
EXPONENTS  0.1687145D+00 0.1687145D+00 0.8000000D+00 0.8000000D+00 0.8000000D+00
EXPONENTS  0.8000000D+00 0.8000000D+00 0.8000000D+00 0.1873114D+02 0.2825394D+01
EXPONENTS  0.6401217D+00 0.1612778D+00 0.1100000D+01 0.1100000D+01 0.1100000D+01
EXPONENTS  0.3047525D+04 0.4573695D+03 0.1039487D+03 0.2921016D+02 0.9286663D+01
EXPONENTS  0.3163927D+01 0.7868272D+01 0.1881289D+01 0.5442493D+00 0.7868272D+01
EXPONENTS  0.1881289D+01 0.5442493D+00 0.7868272D+01 0.1881289D+01 0.5442493D+00
EXPONENTS  0.7868272D+01 0.1881289D+01 0.5442493D+00 0.1687145D+00 0.1687145D+00
EXPONENTS  0.1687145D+00 0.1687145D+00 0.8000000D+00 0.8000000D+00 0.8000000D+00
EXPONENTS  0.8000000D+00 0.8000000D+00 0.8000000D+00 0.1873114D+02 0.2825394D+01
EXPONENTS  0.6401217D+00 0.1612778D+00 0.1100000D+01 0.1100000D+01 0.1100000D+01
MO    1     MO 0.0        OCC NO =    2.0000000  ORB. ENERGY =  -10.192104
  0.37623466D+00  0.69407948D+00  0.11204595D+01  0.14585053D+01  0.12445452D+01
  0.42971156D+00 -0.13451044D-01 -0.61995737D-02  0.17384252D-01  0.00000000D+00
  0.00000000D+00  0.00000000D+00  0.00000000D+00  0.00000000D+00  0.00000000D+00
  0.93518611D-03  0.71704140D-03  0.35785391D-03 -0.70286498D-03  0.00000000D+00
  0.00000000D+00 -0.51257114D-04 -0.82605194D-02 -0.82605194D-02 -0.63020822D-02
  0.00000000D+00  0.00000000D+00  0.00000000D+00 -0.22549866D-03 -0.38248840D-03
 -0.43544953D-03  0.17853200D-03  0.00000000D+00  0.00000000D+00  0.97934904D-03
  0.37623466D+00  0.69407948D+00  0.11204595D+01  0.14585053D+01  0.12445452D+01
  0.42971156D+00 -0.13451044D-01 -0.61995737D-02  0.17384252D-01  0.00000000D+00
  0.00000000D+00  0.00000000D+00  0.00000000D+00  0.00000000D+00  0.00000000D+00
 -0.93518611D-03 -0.71704140D-03 -0.35785391D-03 -0.70286498D-03  0.00000000D+00
  0.00000000D+00  0.51257114D-04 -0.82605194D-02 -0.82605194D-02 -0.63020822D-02
  0.00000000D+00  0.00000000D+00  0.00000000D+00 -0.22549866D-03 -0.38248840D-03
 -0.43544953D-03  0.17853200D-03  0.00000000D+00  0.00000000D+00 -0.97934904D-03
MO    2     MO 0.0        OCC NO =    2.0000000  ORB. ENERGY =  -10.189699
  0.37669257D+00  0.69492423D+00  0.11218232D+01  0.14602804D+01  0.12460600D+01
  0.43023456D+00 -0.14221526D-01 -0.65546886D-02  0.18380031D-01  0.00000000D+00
  0.00000000D+00  0.00000000D+00  0.00000000D+00  0.00000000D+00  0.00000000D+00
 -0.99424598D-03 -0.76232475D-03 -0.38045348D-03 -0.30574886D-02  0.00000000D+00
  0.00000000D+00  0.10286915D-02 -0.78206359D-02 -0.78206359D-02 -0.55991546D-02
  0.00000000D+00  0.00000000D+00  0.00000000D+00 -0.25272082D-03 -0.42866235D-03
 -0.48801694D-03 -0.88874787D-04  0.00000000D+00  0.00000000D+00  0.98686241D-03
 -0.37669257D+00 -0.69492423D+00 -0.11218232D+01 -0.14602804D+01 -0.12460600D+01
 -0.43023456D+00  0.14221526D-01  0.65546886D-02 -0.18380031D-01  0.00000000D+00
  0.00000000D+00  0.00000000D+00  0.00000000D+00  0.00000000D+00  0.00000000D+00
 -0.99424598D-03 -0.76232475D-03 -0.38045348D-03  0.30574886D-02  0.00000000D+00
  0.00000000D+00  0.10286915D-02  0.78206359D-02  0.78206359D-02  0.55991546D-02
  0.00000000D+00  0.00000000D+00  0.00000000D+00  0.25272082D-03  0.42866235D-03
  0.48801694D-03  0.88874787D-04  0.00000000D+00  0.00000000D+00  0.98686241D-03
MO    3     MO 0.0        OCC NO =    2.0000000  ORB. ENERGY =   -0.742715
 -0.93805297D-01 -0.17305246D+00 -0.27936032D+00 -0.36364413D+00 -0.31029820D+00
 -0.10713851D+00 -0.13239208D+00 -0.61019389D-01  0.17110474D+00  0.00000000D+00
  0.00000000D+00  0.00000000D+00  0.00000000D+00  0.00000000D+00  0.00000000D+00
 -0.19073568D+00 -0.14624402D+00 -0.72986015D-01  0.47002594D-01  0.00000000D+00
  0.00000000D+00  0.31565255D-02 -0.18479263D-01 -0.18479263D-01  0.10646503D-01
  0.00000000D+00  0.00000000D+00  0.00000000D+00  0.17003268D-01  0.28840760D-01
  0.32834186D-01 -0.34439640D-03  0.00000000D+00  0.00000000D+00 -0.13444514D-01
 -0.93805297D-01 -0.17305246D+00 -0.27936032D+00 -0.36364413D+00 -0.31029820D+00
 -0.10713851D+00 -0.13239208D+00 -0.61019389D-01  0.17110474D+00  0.00000000D+00
  0.00000000D+00  0.00000000D+00  0.00000000D+00  0.00000000D+00  0.00000000D+00
  0.19073568D+00  0.14624402D+00  0.72986015D-01  0.47002594D-01  0.00000000D+00
  0.00000000D+00 -0.31565255D-02 -0.18479263D-01 -0.18479263D-01  0.10646503D-01
  0.00000000D+00  0.00000000D+00  0.00000000D+00  0.17003268D-01  0.28840760D-01
  0.32834186D-01 -0.34439640D-03  0.00000000D+00  0.00000000D+00  0.13444514D-01
MO    4     MO 0.0        OCC NO =    2.0000000  ORB. ENERGY =   -0.564147
 -0.60856373D-01 -0.11226813D+00 -0.18123557D+00 -0.23591486D+00 -0.20130657D+00
 -0.69506322D-01 -0.90790556D-01 -0.41845284D-01  0.11733855D+00  0.00000000D+00
  0.00000000D+00  0.00000000D+00  0.00000000D+00  0.00000000D+00  0.00000000D+00
  0.26722328D+00  0.20488986D+00  0.10225440D+00  0.37276844D-01  0.00000000D+00
  0.00000000D+00  0.10491226D-01 -0.11844143D-01 -0.11844143D-01  0.57604854D-02
  0.00000000D+00  0.00000000D+00  0.00000000D+00  0.47308257D-01  0.80243758D-01
  0.91354683D-01  0.22601227D-01  0.00000000D+00  0.00000000D+00 -0.20262569D-01
  0.60856373D-01  0.11226813D+00  0.18123557D+00  0.23591486D+00  0.20130657D+00
  0.69506322D-01  0.90790556D-01  0.41845284D-01 -0.11733855D+00  0.00000000D+00
  0.00000000D+00  0.00000000D+00  0.00000000D+00  0.00000000D+00  0.00000000D+00
  0.26722328D+00  0.20488986D+00  0.10225440D+00 -0.37276844D-01  0.00000000D+00
  0.00000000D+00  0.10491226D-01  0.11844143D-01  0.11844143D-01 -0.57604854D-02
  0.00000000D+00  0.00000000D+00  0.00000000D+00 -0.47308257D-01 -0.80243758D-01
 -0.91354683D-01 -0.22601227D-01  0.00000000D+00  0.00000000D+00 -0.20262569D-01
MO    5     MO 0.0        OCC NO =    2.0000000  ORB. ENERGY =   -0.490268
  0.19761490D-02  0.36456091D-02  0.58851434D-02  0.76607081D-02  0.65368961D-02
  0.22570331D-02 -0.17746195D-02 -0.81792051D-03  0.22935345D-02  0.00000000D+00
  0.00000000D+00  0.00000000D+00  0.00000000D+00  0.00000000D+00  0.00000000D+00
  0.50361580D+00  0.38614065D+00  0.19271125D+00  0.38214186D-03  0.00000000D+00
  0.00000000D+00  0.87973437D-02  0.15187609D-02  0.15187609D-02  0.73399520D-02
  0.00000000D+00  0.00000000D+00  0.00000000D+00  0.48416755D-01  0.82123980D-01
  0.93495249D-01  0.35775215D-01  0.00000000D+00  0.00000000D+00 -0.13906235D-01
  0.19761490D-02  0.36456091D-02  0.58851434D-02  0.76607081D-02  0.65368961D-02
  0.22570331D-02 -0.17746195D-02 -0.81792051D-03  0.22935345D-02  0.00000000D+00
  0.00000000D+00  0.00000000D+00  0.00000000D+00  0.00000000D+00  0.00000000D+00
 -0.50361580D+00 -0.38614065D+00 -0.19271125D+00  0.38214186D-03  0.00000000D+00
  0.00000000D+00 -0.87973437D-02  0.15187609D-02  0.15187609D-02  0.73399520D-02
  0.00000000D+00  0.00000000D+00  0.00000000D+00  0.48416755D-01  0.82123980D-01
  0.93495249D-01  0.35775215D-01  0.00000000D+00  0.00000000D+00  0.13906235D-01
MO    6     MO 0.0        OCC NO =    2.0000000  ORB. ENERGY =   -0.282355
  0.00000000D+00  0.00000000D+00  0.00000000D+00  0.00000000D+00  0.00000000D+00
  0.00000000D+00  0.00000000D+00  0.00000000D+00  0.00000000D+00  0.54182090D+00
  0.41543390D+00  0.20733063D+00  0.00000000D+00  0.00000000D+00  0.00000000D+00
  0.00000000D+00  0.00000000D+00  0.00000000D+00  0.00000000D+00  0.39003184D-01
  0.00000000D+00  0.00000000D+00  0.00000000D+00  0.00000000D+00  0.00000000D+00
  0.00000000D+00 -0.34156023D-01  0.00000000D+00  0.00000000D+00  0.00000000D+00
  0.00000000D+00  0.00000000D+00  0.18213248D-01  0.00000000D+00  0.00000000D+00
  0.00000000D+00  0.00000000D+00  0.00000000D+00  0.00000000D+00  0.00000000D+00
  0.00000000D+00  0.00000000D+00  0.00000000D+00  0.00000000D+00  0.54182090D+00
  0.41543390D+00  0.20733063D+00  0.00000000D+00  0.00000000D+00  0.00000000D+00
  0.00000000D+00  0.00000000D+00  0.00000000D+00  0.00000000D+00  0.39003184D-01
  0.00000000D+00  0.00000000D+00  0.00000000D+00  0.00000000D+00  0.00000000D+00
  0.00000000D+00  0.34156023D-01  0.00000000D+00  0.00000000D+00  0.00000000D+00
  0.00000000D+00  0.00000000D+00  0.18213248D-01  0.00000000D+00  0.00000000D+00
MO    7     MO 0.0        OCC NO =    2.0000000  ORB. ENERGY =   -0.282355
  0.00000000D+00  0.00000000D+00  0.00000000D+00  0.00000000D+00  0.00000000D+00
  0.00000000D+00  0.00000000D+00  0.00000000D+00  0.00000000D+00  0.00000000D+00
  0.00000000D+00  0.00000000D+00  0.54182090D+00  0.41543390D+00  0.20733063D+00
  0.00000000D+00  0.00000000D+00  0.00000000D+00  0.00000000D+00  0.00000000D+00
  0.39003184D-01  0.00000000D+00  0.00000000D+00  0.00000000D+00  0.00000000D+00
  0.00000000D+00  0.00000000D+00 -0.34156023D-01  0.00000000D+00  0.00000000D+00
  0.00000000D+00  0.00000000D+00  0.00000000D+00  0.18213248D-01  0.00000000D+00
  0.00000000D+00  0.00000000D+00  0.00000000D+00  0.00000000D+00  0.00000000D+00
  0.00000000D+00  0.00000000D+00  0.00000000D+00  0.00000000D+00  0.00000000D+00
  0.00000000D+00  0.00000000D+00  0.54182090D+00  0.41543390D+00  0.20733063D+00
  0.00000000D+00  0.00000000D+00  0.00000000D+00  0.00000000D+00  0.00000000D+00
  0.39003184D-01  0.00000000D+00  0.00000000D+00  0.00000000D+00  0.00000000D+00
  0.00000000D+00  0.00000000D+00  0.34156023D-01  0.00000000D+00  0.00000000D+00
  0.00000000D+00  0.00000000D+00  0.00000000D+00  0.18213248D-01  0.00000000D+00
END DATA
 THE  HF ENERGY =    -77.329566863602 THE VIRIAL(-V/T)=   2.01019537
