 Title Card Required                                     
GAUSSIAN             13 MOL ORBITALS     60 PRIMITIVES        8 NUCLEI
  C    1    (CENTRE  1)  -2.08553296 -0.97022471  0.00000000  CHARGE =  6.0
  H    2    (CENTRE  2)  -1.90374933 -2.12339037  1.65096203  CHARGE =  1.0
  H    3    (CENTRE  3)  -3.89813993 -0.07414002  0.00000000  CHARGE =  1.0
  H    4    (CENTRE  4)  -1.90374933 -2.12339037 -1.65096203  CHARGE =  1.0
  C    5    (CENTRE  5)   0.00000000  1.05947716  0.00000000  CHARGE =  6.0
  H    6    (CENTRE  6)  -0.18178481  2.21264322 -1.65096169  CHARGE =  1.0
  H    7    (CENTRE  7)  -0.18178481  2.21264322  1.65096169  CHARGE =  1.0
  F    8    (CENTRE  8)   2.28693378 -0.07109775  0.00000000  CHARGE =  9.0
CENTRE ASSIGNMENTS    1  1  1  1  1  1  1  1  1  1  1  1  1  1  1  2  2  2  3  3
CENTRE ASSIGNMENTS    3  4  4  4  5  5  5  5  5  5  5  5  5  5  5  5  5  5  5  6
CENTRE ASSIGNMENTS    6  6  7  7  7  8  8  8  8  8  8  8  8  8  8  8  8  8  8  8
TYPE ASSIGNMENTS      1  1  1  1  1  2  2  3  3  4  4  1  2  3  4  1  1  1  1  1
TYPE ASSIGNMENTS      1  1  1  1  1  1  1  1  1  2  2  3  3  4  4  1  2  3  4  1
TYPE ASSIGNMENTS      1  1  1  1  1  1  1  1  1  1  2  2  3  3  4  4  1  2  3  4
EXPONENTS  0.1722560D+03 0.2591090D+02 0.5533350D+01 0.3664980D+01 0.7705450D+00
EXPONENTS  0.3664980D+01 0.7705450D+00 0.3664980D+01 0.7705450D+00 0.3664980D+01
EXPONENTS  0.7705450D+00 0.1958570D+00 0.1958570D+00 0.1958570D+00 0.1958570D+00
EXPONENTS  0.5447178D+01 0.8245472D+00 0.1831916D+00 0.5447178D+01 0.8245472D+00
EXPONENTS  0.1831916D+00 0.5447178D+01 0.8245472D+00 0.1831916D+00 0.1722560D+03
EXPONENTS  0.2591090D+02 0.5533350D+01 0.3664980D+01 0.7705450D+00 0.3664980D+01
EXPONENTS  0.7705450D+00 0.3664980D+01 0.7705450D+00 0.3664980D+01 0.7705450D+00
EXPONENTS  0.1958570D+00 0.1958570D+00 0.1958570D+00 0.1958570D+00 0.5447178D+01
EXPONENTS  0.8245472D+00 0.1831916D+00 0.5447178D+01 0.8245472D+00 0.1831916D+00
EXPONENTS  0.4138010D+03 0.6224460D+02 0.1343400D+02 0.9777590D+01 0.2086170D+01
EXPONENTS  0.9777590D+01 0.2086170D+01 0.9777590D+01 0.2086170D+01 0.9777590D+01
EXPONENTS  0.2086170D+01 0.4823830D+00 0.4823830D+00 0.4823830D+00 0.4823830D+00
MO    1     MO 0.0        OCC NO =    2.0000000  ORB. ENERGY =  -26.126795
  0.46463361D-03  0.65190017D-03  0.39994966D-03 -0.66511164D-03  0.63421070D-03
 -0.10225342D-02 -0.52983308D-03 -0.55433390D-03 -0.28723190D-03  0.00000000D+00
  0.00000000D+00 -0.12499940D-02 -0.58269337D-03 -0.46166766D-04  0.00000000D+00
  0.24919909D-03  0.35007605D-03  0.45573492D-04 -0.10384362D-03 -0.14588001D-03
  0.13271358D-03  0.24919909D-03  0.35007605D-03  0.45573492D-04 -0.18042591D-02
 -0.25314502D-02 -0.15530792D-02  0.24445771D-02 -0.23310026D-02  0.33050487D-02
  0.17125336D-02 -0.11124384D-02 -0.57641760D-03  0.00000000D+00  0.00000000D+00
  0.38473140D-02  0.12050961D-02 -0.10628938D-02  0.00000000D+00 -0.54194051D-03
 -0.76132058D-03 -0.24819554D-03 -0.54194051D-03 -0.76132058D-03 -0.24819554D-03
  0.37597178D+01  0.54179139D+01  0.34852546D+01 -0.15580774D+00  0.14687924D+00
 -0.16878112D-01 -0.84564961D-02  0.85935081D-02  0.43056337D-02  0.00000000D+00
  0.00000000D+00 -0.15094923D-01  0.41145694D-02 -0.20056577D-02  0.00000000D+00
MO    2     MO 0.0        OCC NO =    2.0000000  ORB. ENERGY =  -11.243813
 -0.37444109D-02 -0.52535634D-02 -0.32231329D-02  0.18324304D-02 -0.17472960D-02
 -0.25888907D-03 -0.13414515D-03  0.11221172D-03  0.58143269D-04  0.00000000D+00
  0.00000000D+00  0.40729551D-02  0.16795042D-02  0.16487971D-02  0.00000000D+00
 -0.52478707D-03 -0.73722334D-03  0.22486181D-03 -0.52237661D-03 -0.73383713D-03
  0.27944414D-03 -0.52478707D-03 -0.73722334D-03  0.22486181D-03  0.20666529D+01
  0.28995995D+01  0.17789439D+01 -0.74718385D-01  0.71246985D-01  0.32545305D-03
  0.16863573D-03 -0.33819194D-03 -0.17523647D-03  0.00000000D+00  0.00000000D+00
 -0.15424942D-01  0.17431411D-02  0.26607879D-03  0.00000000D+00 -0.16989470D-03
 -0.23866888D-03  0.30491993D-02 -0.16989470D-03 -0.23866888D-03  0.30491993D-02
 -0.48053898D-03 -0.69247719D-03 -0.44545915D-03  0.15556204D-04 -0.14664761D-04
 -0.50821198D-02 -0.25463112D-02  0.35137141D-02  0.17604878D-02  0.00000000D+00
  0.00000000D+00  0.22629105D-02  0.40424423D-03 -0.70364131D-03  0.00000000D+00
MO    3     MO 0.0        OCC NO =    2.0000000  ORB. ENERGY =  -11.159798
  0.20668857D+01  0.28999261D+01  0.17791443D+01 -0.76234768D-01  0.72692917D-01
 -0.21094332D-04 -0.10930173D-04  0.21598559D-03  0.11191441D-03  0.00000000D+00
  0.00000000D+00 -0.17289300D-01 -0.66049438D-03 -0.62582101D-03  0.00000000D+00
  0.21700001D-05  0.30484263D-05  0.29759798D-02 -0.23221732D-04 -0.32621998D-04
  0.29940243D-02  0.21700001D-05  0.30484263D-05  0.29759798D-02  0.21419220D-02
  0.30052052D-02  0.18437344D-02  0.16336496D-02 -0.15577506D-02 -0.41512045D-03
 -0.21509750D-03 -0.11139028D-03 -0.57717635D-04  0.00000000D+00  0.00000000D+00
  0.42005913D-02 -0.14262472D-02 -0.16005265D-02  0.00000000D+00 -0.49843692D-03
 -0.70020653D-03  0.16361315D-03 -0.49843692D-03 -0.70020653D-03  0.16361315D-03
  0.13681142D-03  0.19715109D-03  0.12682404D-03 -0.15714183D-03  0.14813688D-03
  0.10772137D-02  0.53971995D-03  0.53648299D-03  0.26879584D-03  0.00000000D+00
  0.00000000D+00 -0.56507429D-03  0.28959255D-03 -0.77518404D-04  0.00000000D+00
MO    4     MO 0.0        OCC NO =    2.0000000  ORB. ENERGY =   -1.576881
 -0.18335503D-01 -0.25725470D-01 -0.15782927D-01 -0.45886941D-02  0.43755044D-02
  0.16407369D-01  0.85015908D-02  0.87945844D-02  0.45569741D-02  0.00000000D+00
  0.00000000D+00  0.36781788D-02  0.24105567D-02 -0.13738494D-02  0.00000000D+00
  0.30076100D-03  0.42251046D-03 -0.42556332D-03  0.12125228D-02  0.17033577D-02
  0.32572028D-03  0.30076100D-03  0.42251046D-03 -0.42556332D-03 -0.12966133D+00
 -0.18192021D+00 -0.11161053D+00 -0.51882011D-01  0.49471584D-01  0.11662621D+00
  0.60430672D-01 -0.60057258D-01 -0.31119079D-01  0.00000000D+00  0.00000000D+00
  0.16750036D-01 -0.11423042D-02  0.16267152D-02  0.00000000D+00  0.57697153D-02
  0.81053232D-02 -0.10642269D-02  0.57697153D-02  0.81053232D-02 -0.10642269D-02
 -0.92122890D+00 -0.13275302D+01 -0.85397826D+00 -0.36692271D+00  0.34589634D+00
 -0.34048871D+00 -0.17059618D+00  0.16250561D+00  0.81420722D-01  0.00000000D+00
  0.00000000D+00  0.31451002D+00 -0.45084681D-01  0.21970376D-01  0.00000000D+00
MO    5     MO 0.0        OCC NO =    2.0000000  ORB. ENERGY =   -1.033641
 -0.34686542D+00 -0.48666653D+00 -0.29857657D+00 -0.12030042D+00  0.11471128D+00
  0.52808584D-01  0.27363130D-01  0.64669767D-01  0.33509083D-01  0.00000000D+00
  0.00000000D+00  0.93227866D-01 -0.54456524D-04  0.13829207D-02  0.00000000D+00
  0.33791993D-01  0.47471151D-01 -0.27671713D-03  0.35809022D-01  0.50304683D-01
 -0.49609124D-03  0.33791993D-01  0.47471151D-01 -0.27671713D-03 -0.28755612D+00
 -0.40345313D+00 -0.24752401D+00 -0.10881729D+00  0.10376167D+00 -0.13303302D+00
 -0.68931971D-01 -0.44504436D-01 -0.23060278D-01  0.00000000D+00  0.00000000D+00
  0.71662600D-01 -0.97003525D-02  0.24591123D-02  0.00000000D+00  0.31481050D-01
  0.44224727D-01 -0.78668799D-03  0.31481050D-01  0.44224727D-01 -0.78668799D-03
  0.21233616D+00  0.30598547D+00  0.19683540D+00  0.82617053D-01 -0.77882713D-01
 -0.47567119D+00 -0.23832710D+00  0.11220954D+00  0.56220718D-01  0.00000000D+00
  0.00000000D+00 -0.91106544D-01 -0.38121205D-01  0.98715030D-02  0.00000000D+00
MO    6     MO 0.0        OCC NO =    2.0000000  ORB. ENERGY =   -0.866213
  0.26280633D+00  0.36872815D+00  0.22621976D+00  0.83494317D-01 -0.79615189D-01
  0.10394963D+00  0.53862210D-01  0.12462188D+00  0.64573678D-01  0.00000000D+00
  0.00000000D+00 -0.93492204D-01  0.82135216D-03  0.19812914D-02  0.00000000D+00
 -0.38708513D-01 -0.54377902D-01 -0.66032186D-02 -0.35550341D-01 -0.49941287D-01
 -0.67107074D-02 -0.38708513D-01 -0.54377902D-01 -0.66032186D-02 -0.29068888D+00
 -0.40784851D+00 -0.25022063D+00 -0.10530999D+00  0.10041731D+00  0.84787241D-01
  0.43933089D-01  0.18974824D+00  0.98319351D-01  0.00000000D+00  0.00000000D+00
  0.98229003D-01 -0.63517809D-02  0.11655239D-01  0.00000000D+00  0.48746940D-01
  0.68479931D-01  0.62970498D-02  0.48746940D-01  0.68479931D-01  0.62970498D-02
  0.19648489D+00  0.28314312D+00  0.18214130D+00  0.77258629D-01 -0.72831352D-01
 -0.69240332D+00 -0.34691712D+00  0.72888934D+00  0.36519783D+00  0.00000000D+00
  0.00000000D+00 -0.90570781D-01 -0.64716162D-01  0.67953468D-01  0.00000000D+00
MO    7     MO 0.0        OCC NO =    2.0000000  ORB. ENERGY =   -0.704216
  0.00000000D+00  0.00000000D+00  0.00000000D+00  0.00000000D+00  0.00000000D+00
  0.00000000D+00  0.00000000D+00  0.00000000D+00  0.00000000D+00  0.20501175D+00
  0.10622824D+00  0.00000000D+00  0.00000000D+00  0.00000000D+00  0.10960508D-01
  0.24026631D-01  0.33752724D-01  0.10510226D-01  0.00000000D+00  0.00000000D+00
  0.00000000D+00 -0.24026631D-01 -0.33752724D-01 -0.10510226D-01  0.00000000D+00
  0.00000000D+00  0.00000000D+00  0.00000000D+00  0.00000000D+00  0.00000000D+00
  0.00000000D+00  0.00000000D+00  0.00000000D+00  0.47027568D+00  0.24367656D+00
  0.00000000D+00  0.00000000D+00  0.00000000D+00  0.49114494D-01 -0.51497225D-01
 -0.72343544D-01 -0.13106849D-01  0.51497225D-01  0.72343544D-01  0.13106849D-01
  0.00000000D+00  0.00000000D+00  0.00000000D+00  0.00000000D+00  0.00000000D+00
  0.00000000D+00  0.00000000D+00  0.00000000D+00  0.00000000D+00  0.20574995D+01
  0.10308758D+01  0.00000000D+00  0.00000000D+00  0.00000000D+00  0.20026950D+00
MO    8     MO 0.0        OCC NO =    2.0000000  ORB. ENERGY =   -0.684146
 -0.26080026D-01 -0.36591355D-01 -0.22449296D-01 -0.84283327D-02  0.80367541D-02
 -0.22927647D+00 -0.11880117D+00  0.73109000D-01  0.37881929D-01  0.00000000D+00
  0.00000000D+00  0.14888995D-01 -0.20738522D-01  0.13090440D-01  0.00000000D+00
 -0.46646345D-02 -0.65529005D-02 -0.71676626D-03  0.38319609D-01  0.53831567D-01
  0.11080234D-01 -0.46646345D-02 -0.65529005D-02 -0.71676626D-03  0.11807908D-01
  0.16566983D-01  0.10164070D-01  0.11097123D-01 -0.10581553D-01 -0.17204890D+00
 -0.89148317D-01  0.38912186D+00  0.20162616D+00  0.00000000D+00  0.00000000D+00
  0.20171008D-02  0.13597489D-02  0.31989717D-01  0.00000000D+00  0.31424985D-01
  0.44145967D-01  0.11364740D-01  0.31424985D-01  0.44145967D-01  0.11364740D-01
 -0.13791739D+00 -0.19874485D+00 -0.12784928D+00 -0.60366908D-01  0.56907605D-01
  0.22433134D+01  0.11239747D+01  0.80502726D+00  0.40334546D+00  0.00000000D+00
  0.00000000D+00  0.59694448D-01  0.23396473D+00  0.74569786D-01  0.00000000D+00
MO    9     MO 0.0        OCC NO =    2.0000000  ORB. ENERGY =   -0.640494
 -0.50860305D-01 -0.71359112D-01 -0.43779790D-01 -0.14682870D-01  0.14000707D-01
 -0.14580612D+00 -0.75550442D-01 -0.25268139D+00 -0.13092859D+00  0.00000000D+00
  0.00000000D+00  0.32032141D-01 -0.13132150D-01 -0.13098461D-01  0.00000000D+00
  0.27215839D-01  0.38232938D-01  0.92383204D-02  0.10853773D-01  0.15247432D-01
 -0.89061898D-04  0.27215839D-01  0.38232938D-01  0.92383204D-02  0.60106026D-01
  0.84331240D-01  0.51738367D-01  0.11322661D-01 -0.10796612D-01  0.39737652D+00
  0.20590337D+00  0.49443825D-02  0.25619657D-02  0.00000000D+00  0.00000000D+00
 -0.30362150D-01  0.32390377D-01  0.13664492D-01  0.00000000D+00 -0.16599309D-01
 -0.23318787D-01 -0.71908292D-02 -0.16599309D-01 -0.23318787D-01 -0.71908292D-02
  0.10072951D+00  0.14515553D+00  0.93376156D-01  0.45206898D-01 -0.42616333D-01
 -0.57502926D+00 -0.28810881D+00  0.24918498D+01  0.12484997D+01  0.00000000D+00
  0.00000000D+00 -0.44598058D-01 -0.69007340D-01  0.25877311D+00  0.00000000D+00
MO   10     MO 0.0        OCC NO =    2.0000000  ORB. ENERGY =   -0.574137
  0.00000000D+00  0.00000000D+00  0.00000000D+00  0.00000000D+00  0.00000000D+00
  0.00000000D+00  0.00000000D+00  0.00000000D+00  0.00000000D+00 -0.52874059D+00
 -0.27397056D+00  0.00000000D+00  0.00000000D+00  0.00000000D+00 -0.56155317D-01
 -0.71488485D-01 -0.10042736D+00 -0.25557467D-01  0.00000000D+00  0.00000000D+00
  0.00000000D+00  0.71488485D-01  0.10042736D+00  0.25557467D-01  0.00000000D+00
  0.00000000D+00  0.00000000D+00  0.00000000D+00  0.00000000D+00  0.00000000D+00
  0.00000000D+00  0.00000000D+00  0.00000000D+00 -0.11296795D+00 -0.58535118D-01
  0.00000000D+00  0.00000000D+00  0.00000000D+00  0.72701424D-02  0.18561988D-01
  0.26075969D-01  0.12333396D-01 -0.18561988D-01 -0.26075969D-01 -0.12333396D-01
  0.00000000D+00  0.00000000D+00  0.00000000D+00  0.00000000D+00  0.00000000D+00
  0.00000000D+00  0.00000000D+00  0.00000000D+00  0.00000000D+00  0.18862347D+01
  0.94506641D+00  0.00000000D+00  0.00000000D+00  0.00000000D+00  0.20024065D+00
MO   11     MO 0.0        OCC NO =    2.0000000  ORB. ENERGY =   -0.553891
  0.38074069D-02  0.53419493D-02  0.32773589D-02  0.27135619D-02 -0.25874904D-02
 -0.42314152D+00 -0.21925368D+00  0.43699956D+00  0.22643432D+00  0.00000000D+00
  0.00000000D+00 -0.29162893D-02 -0.36536811D-01  0.39035278D-01  0.00000000D+00
 -0.50366064D-01 -0.70754484D-01 -0.22377559D-01  0.99070623D-01  0.13917488D+00
  0.47283539D-01 -0.50366064D-01 -0.70754484D-01 -0.22377559D-01  0.23947304D-01
  0.33599058D-01  0.20613481D-01  0.51806799D-02 -0.49399867D-02  0.82481284D-01
  0.42738242D-01 -0.13277545D+00 -0.68798507D-01  0.00000000D+00  0.00000000D+00
 -0.11373599D-01  0.17428501D-02 -0.11894808D-01  0.00000000D+00 -0.19195006D-01
 -0.26965235D-01 -0.86932073D-02 -0.19195006D-01 -0.26965235D-01 -0.86932073D-02
  0.75704143D-02  0.10909290D-01  0.70177664D-02  0.97616206D-02 -0.92022346D-02
 -0.10038664D+01 -0.50297051D+00 -0.35380719D-01 -0.17726918D-01  0.00000000D+00
  0.00000000D+00  0.87515034D-03 -0.11485433D+00  0.96613388D-03  0.00000000D+00
MO   12     MO 0.0        OCC NO =    2.0000000  ORB. ENERGY =   -0.490461
  0.00000000D+00  0.00000000D+00  0.00000000D+00  0.00000000D+00  0.00000000D+00
  0.00000000D+00  0.00000000D+00  0.00000000D+00  0.00000000D+00  0.31979485D+00
  0.16570389D+00  0.00000000D+00  0.00000000D+00  0.00000000D+00  0.25408662D-01
  0.49354685D-01  0.69333694D-01  0.29958523D-01  0.00000000D+00  0.00000000D+00
  0.00000000D+00 -0.49354685D-01 -0.69333694D-01 -0.29958523D-01  0.00000000D+00
  0.00000000D+00  0.00000000D+00  0.00000000D+00  0.00000000D+00  0.00000000D+00
  0.00000000D+00  0.00000000D+00  0.00000000D+00 -0.49047114D+00 -0.25414098D+00
  0.00000000D+00  0.00000000D+00  0.00000000D+00 -0.27777185D-01  0.78961606D-01
  0.11092564D+00  0.45673170D-01 -0.78961606D-01 -0.11092564D+00 -0.45673170D-01
  0.00000000D+00  0.00000000D+00  0.00000000D+00  0.00000000D+00  0.00000000D+00
  0.00000000D+00  0.00000000D+00  0.00000000D+00  0.00000000D+00  0.17333906D+01
  0.86848643D+00  0.00000000D+00  0.00000000D+00  0.00000000D+00  0.19634640D+00
MO   13     MO 0.0        OCC NO =    2.0000000  ORB. ENERGY =   -0.482676
 -0.55454533D-01 -0.77805003D-01 -0.47734432D-01 -0.16029391D-01  0.15284669D-01
  0.39087682D+00  0.20253550D+00  0.35958929D+00  0.18632365D+00  0.00000000D+00
  0.00000000D+00  0.33374230D-01  0.28024139D-01  0.42570924D-01  0.00000000D+00
 -0.21841201D-01 -0.30682622D-01 -0.14637877D-01 -0.26329262D-01 -0.36987471D-01
 -0.23562493D-01 -0.21841201D-01 -0.30682622D-01 -0.14637877D-01 -0.29438383D-01
 -0.41303269D-01 -0.25340120D-01 -0.10521655D-01  0.10032821D-01 -0.28019414D+00
 -0.14518451D+00 -0.46153620D+00 -0.23914814D+00  0.00000000D+00  0.00000000D+00
  0.79256868D-02 -0.12189044D-01 -0.28954886D-01  0.00000000D+00 -0.40471807D-01
 -0.56854985D-01 -0.24839760D-01 -0.40471807D-01 -0.56854985D-01 -0.24839760D-01
  0.10067739D-02  0.14508041D-02  0.93327835D-03 -0.33144346D-02  0.31245022D-02
  0.95426831D+00  0.47812020D+00  0.16280892D+01  0.81572691D+00  0.00000000D+00
  0.00000000D+00 -0.46859033D-02  0.11153517D+00  0.18429981D+00  0.00000000D+00
END DATA
 THE  HF ENERGY =   -177.105618870615 THE VIRIAL(-V/T)=   2.00140923
