 ub3lyp/6-31g(d) opted
GAUSSIAN             32 MOL ORBITALS    144 PRIMITIVES       12 NUCLEI
  C    1    (CENTRE  1)  -1.40595813  3.37441593  0.00000000  CHARGE =  6.0
  H    2    (CENTRE  2)  -1.13917794  4.41941369  1.74798722  CHARGE =  1.0
  H    3    (CENTRE  3)  -1.13917794  4.41941369 -1.74798722  CHARGE =  1.0
  C    4    (CENTRE  4)  -1.40595813  0.58559022  0.00000000  CHARGE =  6.0
  H    5    (CENTRE  5)  -2.37071057 -0.16528868  1.67172544  CHARGE =  1.0
  H    6    (CENTRE  6)  -2.37071057 -0.16528868 -1.67172544  CHARGE =  1.0
  C    7    (CENTRE  7)   1.40595813 -0.58559022  0.00000000  CHARGE =  6.0
  H    8    (CENTRE  8)   2.37071057  0.16528868 -1.67172544  CHARGE =  1.0
  H    9    (CENTRE  9)   2.37071057  0.16528868  1.67172544  CHARGE =  1.0
  C   10    (CENTRE 10)   1.40595813 -3.37441593  0.00000000  CHARGE =  6.0
  H   11    (CENTRE 11)   1.13917794 -4.41941369 -1.74798722  CHARGE =  1.0
  H   12    (CENTRE 12)   1.13917794 -4.41941369  1.74798722  CHARGE =  1.0
CENTRE ASSIGNMENTS    1  1  1  1  1  1  1  1  1  1  1  1  1  1  1  1  1  1  1  1
CENTRE ASSIGNMENTS    1  1  1  1  1  1  1  1  2  2  2  2  3  3  3  3  4  4  4  4
CENTRE ASSIGNMENTS    4  4  4  4  4  4  4  4  4  4  4  4  4  4  4  4  4  4  4  4
CENTRE ASSIGNMENTS    4  4  4  4  5  5  5  5  6  6  6  6  7  7  7  7  7  7  7  7
CENTRE ASSIGNMENTS    7  7  7  7  7  7  7  7  7  7  7  7  7  7  7  7  7  7  7  7
CENTRE ASSIGNMENTS    8  8  8  8  9  9  9  9 10 10 10 10 10 10 10 10 10 10 10 10
CENTRE ASSIGNMENTS   10 10 10 10 10 10 10 10 10 10 10 10 10 10 10 10 11 11 11 11
CENTRE ASSIGNMENTS   12 12 12 12
TYPE ASSIGNMENTS      1  1  1  1  1  1  1  1  1  2  2  2  3  3  3  4  4  4  1  2
TYPE ASSIGNMENTS      3  4  5  6  7  8  9 10  1  1  1  1  1  1  1  1  1  1  1  1
TYPE ASSIGNMENTS      1  1  1  1  1  2  2  2  3  3  3  4  4  4  1  2  3  4  5  6
TYPE ASSIGNMENTS      7  8  9 10  1  1  1  1  1  1  1  1  1  1  1  1  1  1  1  1
TYPE ASSIGNMENTS      1  2  2  2  3  3  3  4  4  4  1  2  3  4  5  6  7  8  9 10
TYPE ASSIGNMENTS      1  1  1  1  1  1  1  1  1  1  1  1  1  1  1  1  1  2  2  2
TYPE ASSIGNMENTS      3  3  3  4  4  4  1  2  3  4  5  6  7  8  9 10  1  1  1  1
TYPE ASSIGNMENTS      1  1  1  1
EXPONENTS  0.3047525D+04 0.4573695D+03 0.1039487D+03 0.2921016D+02 0.9286663D+01
EXPONENTS  0.3163927D+01 0.7868272D+01 0.1881289D+01 0.5442493D+00 0.7868272D+01
EXPONENTS  0.1881289D+01 0.5442493D+00 0.7868272D+01 0.1881289D+01 0.5442493D+00
EXPONENTS  0.7868272D+01 0.1881289D+01 0.5442493D+00 0.1687145D+00 0.1687145D+00
EXPONENTS  0.1687145D+00 0.1687145D+00 0.8000000D+00 0.8000000D+00 0.8000000D+00
EXPONENTS  0.8000000D+00 0.8000000D+00 0.8000000D+00 0.1873114D+02 0.2825394D+01
EXPONENTS  0.6401217D+00 0.1612778D+00 0.1873114D+02 0.2825394D+01 0.6401217D+00
EXPONENTS  0.1612778D+00 0.3047525D+04 0.4573695D+03 0.1039487D+03 0.2921016D+02
EXPONENTS  0.9286663D+01 0.3163927D+01 0.7868272D+01 0.1881289D+01 0.5442493D+00
EXPONENTS  0.7868272D+01 0.1881289D+01 0.5442493D+00 0.7868272D+01 0.1881289D+01
EXPONENTS  0.5442493D+00 0.7868272D+01 0.1881289D+01 0.5442493D+00 0.1687145D+00
EXPONENTS  0.1687145D+00 0.1687145D+00 0.1687145D+00 0.8000000D+00 0.8000000D+00
EXPONENTS  0.8000000D+00 0.8000000D+00 0.8000000D+00 0.8000000D+00 0.1873114D+02
EXPONENTS  0.2825394D+01 0.6401217D+00 0.1612778D+00 0.1873114D+02 0.2825394D+01
EXPONENTS  0.6401217D+00 0.1612778D+00 0.3047525D+04 0.4573695D+03 0.1039487D+03
EXPONENTS  0.2921016D+02 0.9286663D+01 0.3163927D+01 0.7868272D+01 0.1881289D+01
EXPONENTS  0.5442493D+00 0.7868272D+01 0.1881289D+01 0.5442493D+00 0.7868272D+01
EXPONENTS  0.1881289D+01 0.5442493D+00 0.7868272D+01 0.1881289D+01 0.5442493D+00
EXPONENTS  0.1687145D+00 0.1687145D+00 0.1687145D+00 0.1687145D+00 0.8000000D+00
EXPONENTS  0.8000000D+00 0.8000000D+00 0.8000000D+00 0.8000000D+00 0.8000000D+00
EXPONENTS  0.1873114D+02 0.2825394D+01 0.6401217D+00 0.1612778D+00 0.1873114D+02
EXPONENTS  0.2825394D+01 0.6401217D+00 0.1612778D+00 0.3047525D+04 0.4573695D+03
EXPONENTS  0.1039487D+03 0.2921016D+02 0.9286663D+01 0.3163927D+01 0.7868272D+01
EXPONENTS  0.1881289D+01 0.5442493D+00 0.7868272D+01 0.1881289D+01 0.5442493D+00
EXPONENTS  0.7868272D+01 0.1881289D+01 0.5442493D+00 0.7868272D+01 0.1881289D+01
EXPONENTS  0.5442493D+00 0.1687145D+00 0.1687145D+00 0.1687145D+00 0.1687145D+00
EXPONENTS  0.8000000D+00 0.8000000D+00 0.8000000D+00 0.8000000D+00 0.8000000D+00
EXPONENTS  0.8000000D+00 0.1873114D+02 0.2825394D+01 0.6401217D+00 0.1612778D+00
EXPONENTS  0.1873114D+02 0.2825394D+01 0.6401217D+00 0.1612778D+00
MO    1     MO 0.0        OCC NO =    2.0000000  ORB. ENERGY =    0.000000
 -0.58207433D-02 -0.10738135D-01 -0.17334679D-01 -0.22564602D-01 -0.19254415D-01
 -0.66480869D-02  0.12422864D-03  0.57256869D-04 -0.16055424D-03  0.64674863D-04
  0.49588583D-04  0.24748178D-04 -0.40087421D-03 -0.30736492D-03 -0.15339663D-03
 -0.44342724D-12 -0.33999188D-12 -0.16967978D-12  0.63550603D-03  0.58969693D-05
 -0.21925436D-03 -0.17647359D-13 -0.68849140D-04 -0.24658709D-03 -0.79560633D-04
 -0.40361313D-04  0.68720656D-13  0.23409734D-12 -0.21034007D-04 -0.35677657D-04
 -0.40617752D-04 -0.24844661D-04 -0.21034007D-04 -0.35677658D-04 -0.40617752D-04
 -0.24844661D-04  0.37630344D+00  0.69420637D+00  0.11206643D+01  0.14587720D+01
  0.12447728D+01  0.42979012D+00 -0.12691736D-01 -0.58496094D-02  0.16402915D-01
  0.47944064D-03  0.36760468D-03  0.18346050D-03 -0.72824688D-03 -0.55837352D-03
 -0.27866752D-03 -0.54412965D-11 -0.41720411D-11 -0.20821409D-11 -0.14112258D-02
  0.10694236D-03 -0.19298652D-03 -0.31927357D-12 -0.57067605D-02 -0.55319643D-02
 -0.54364708D-02  0.15424515D-03  0.66766781D-12  0.23702179D-12  0.17940861D-03
  0.30431095D-03  0.34644726D-03  0.38443401D-03  0.17940861D-03  0.30431095D-03
  0.34644726D-03  0.38443402D-03  0.37630369D+00  0.69420682D+00  0.11206651D+01
  0.14587729D+01  0.12447736D+01  0.42979040D+00 -0.12691744D-01 -0.58496131D-02
  0.16402926D-01 -0.47944045D-03 -0.36760453D-03 -0.18346042D-03  0.72824681D-03
  0.55837346D-03  0.27866749D-03  0.73258927D-11  0.56170299D-11  0.28032916D-11
 -0.14112277D-02 -0.10694212D-03  0.19298651D-03  0.43257918D-12 -0.57067639D-02
 -0.55319678D-02 -0.54364741D-02  0.15424513D-03  0.72911294D-12  0.34958321D-12
  0.17940869D-03  0.30431109D-03  0.34644742D-03  0.38443425D-03  0.17940869D-03
  0.30431109D-03  0.34644742D-03  0.38443425D-03 -0.58207305D-02 -0.10738111D-01
 -0.17334641D-01 -0.22564552D-01 -0.19254373D-01 -0.66480723D-02  0.12422822D-03
  0.57256675D-04 -0.16055369D-03 -0.64674853D-04 -0.49588575D-04 -0.24748174D-04
  0.40087443D-03  0.30736509D-03  0.15339672D-03  0.32932818D-12  0.25250796D-12
  0.12601917D-12  0.63550635D-03 -0.58969830D-05  0.21925454D-03  0.11770637D-14
 -0.68849428D-04 -0.24658745D-03 -0.79560798D-04 -0.40361345D-04  0.75990426D-13
  0.33198696D-12 -0.21034037D-04 -0.35677708D-04 -0.40617809D-04 -0.24844626D-04
 -0.21034037D-04 -0.35677708D-04 -0.40617809D-04 -0.24844627D-04
MO    2     MO 0.0        OCC NO =    2.0000000  ORB. ENERGY =    0.000000
 -0.68841967D-02 -0.12699999D-01 -0.20501736D-01 -0.26687168D-01 -0.22772209D-01
 -0.78626965D-02  0.13782407D-03  0.63522986D-04 -0.17812508D-03 -0.15647928D-04
 -0.11997839D-04 -0.59877624D-05 -0.37476967D-03 -0.28734961D-03 -0.14340759D-03
 -0.13661314D-12 -0.10474629D-12 -0.52275741D-13  0.61965784D-03  0.25897630D-04
 -0.29817224D-03  0.11664253D-13 -0.30478811D-04 -0.13698661D-03  0.15325057D-03
 -0.53819252D-04 -0.31939769D-13  0.77081922D-13 -0.37081034D-04 -0.62896451D-04
 -0.71605387D-04  0.35650159D-04 -0.37081034D-04 -0.62896451D-04 -0.71605387D-04
  0.35650159D-04  0.37687039D+00  0.69525228D+00  0.11223528D+01  0.14609698D+01
  0.12466482D+01  0.43043766D+00 -0.12175157D-01 -0.56115187D-02  0.15735284D-01
 -0.23713757D-03 -0.18182205D-03 -0.90741946D-04  0.26993130D-03  0.20696620D-03
  0.10329064D-03 -0.21172257D-11 -0.16233544D-11 -0.81016760D-12 -0.29146641D-02
 -0.36078249D-03  0.45367947D-06 -0.12678140D-12 -0.51526303D-02 -0.52107237D-02
 -0.51984792D-02 -0.33074800D-04 -0.15035550D-12  0.14450710D-12  0.11599778D-03
  0.19675419D-03  0.22399769D-03  0.35589638D-03  0.11599778D-03  0.19675419D-03
  0.22399769D-03  0.35589638D-03 -0.37687014D+00 -0.69525183D+00 -0.11223520D+01
 -0.14609688D+01 -0.12466474D+01 -0.43043738D+00  0.12175149D-01  0.56115149D-02
 -0.15735273D-01 -0.23713789D-03 -0.18182229D-03 -0.90742066D-04  0.26993181D-03
  0.20696659D-03  0.10329083D-03 -0.77719395D-11 -0.59590302D-11 -0.29739737D-11
  0.29146632D-02 -0.36078256D-03  0.45380770D-06 -0.45939671D-12  0.51526266D-02
  0.52107201D-02  0.51984757D-02  0.33074899D-04 -0.47241052D-12 -0.41549505D-12
 -0.11599767D-03 -0.19675400D-03 -0.22399748D-03 -0.35589613D-03 -0.11599767D-03
 -0.19675400D-03 -0.22399748D-03 -0.35589613D-03  0.68842127D-02  0.12700028D-01
  0.20501783D-01  0.26687230D-01  0.22772262D-01  0.78627148D-02 -0.13782457D-03
 -0.63523216D-04  0.17812573D-03 -0.15647981D-04 -0.11997879D-04 -0.59877827D-05
 -0.37476941D-03 -0.28734941D-03 -0.14340750D-03 -0.25092360D-12 -0.19239230D-12
 -0.96017243D-13 -0.61965751D-03  0.25897629D-04 -0.29817209D-03  0.15196418D-13
  0.30478453D-04  0.13698614D-03 -0.15325093D-03  0.53819227D-04 -0.39750338D-13
 -0.34683518D-12  0.37081012D-04  0.62896415D-04  0.71605346D-04 -0.35650163D-04
  0.37081013D-04  0.62896416D-04  0.71605346D-04 -0.35650162D-04
MO    3     MO 0.0        OCC NO =    1.9999999  ORB. ENERGY =    0.000000
  0.37728357D+00  0.69601452D+00  0.11235832D+01  0.14625715D+01  0.12480149D+01
  0.43090957D+00 -0.11154723D-01 -0.51412018D-02  0.14416466D-01 -0.11710223D-04
 -0.89786560D-05 -0.44809786D-05  0.35014788D-03  0.26847118D-03  0.13398594D-03
  0.50672125D-13  0.38852171D-13  0.19389957D-13 -0.19272414D-02 -0.69769101D-04
  0.16276715D-03 -0.15296393D-13 -0.58691421D-02 -0.58589130D-02 -0.57864547D-02
  0.65910680D-04 -0.14370048D-12 -0.53211855D-12 -0.11798727D-03 -0.20012874D-03
 -0.22783950D-03  0.25373785D-03 -0.11798727D-03 -0.20012874D-03 -0.22783950D-03
  0.25373785D-03  0.66851647D-02  0.12332823D-01  0.19909001D-01  0.25915604D-01
  0.22113832D-01  0.76353746D-02 -0.42776472D-03 -0.19715637D-03  0.55284703D-03
 -0.92736869D-03 -0.71104749D-03 -0.35486253D-03 -0.22834763D-02 -0.17508248D-02
 -0.87378427D-03  0.10895083D-10  0.83536584D-11  0.41690610D-11  0.26976667D-03
 -0.16990104D-03  0.24150103D-03  0.64057568D-12 -0.20792594D-03 -0.34373035D-03
  0.43234663D-05  0.92712300D-04 -0.12072913D-11 -0.52568340D-12  0.15233065D-03
  0.25838161D-03  0.29415833D-03  0.10332083D-03  0.15233065D-03  0.25838161D-03
  0.29415833D-03  0.10332083D-03 -0.66851278D-02 -0.12332755D-01 -0.19908891D-01
 -0.25915461D-01 -0.22113710D-01 -0.76353325D-02  0.42776517D-03  0.19715657D-03
 -0.55284761D-03 -0.92736901D-03 -0.71104774D-03 -0.35486265D-03 -0.22834745D-02
 -0.17508234D-02 -0.87378359D-03 -0.11179633D-10 -0.85718335D-11 -0.42779457D-11
 -0.26976633D-03 -0.16990105D-03  0.24150117D-03 -0.65643602D-12  0.20792507D-03
  0.34372838D-03 -0.43242312D-05 -0.92712441D-04 -0.12163039D-11 -0.52927609D-12
 -0.15233097D-03 -0.25838216D-03 -0.29415896D-03 -0.10332086D-03 -0.15233098D-03
 -0.25838217D-03 -0.29415897D-03 -0.10332086D-03 -0.37728233D+00 -0.69601222D+00
 -0.11235795D+01 -0.14625667D+01 -0.12480108D+01 -0.43090815D+00  0.11154687D-01
  0.51411850D-02 -0.14416419D-01 -0.11710959D-04 -0.89792204D-05 -0.44812603D-05
  0.35014762D-03  0.26847098D-03  0.13398584D-03 -0.36493683D-12 -0.27981041D-12
 -0.13964501D-12  0.19272364D-02 -0.69768889D-04  0.16276717D-03  0.54440177D-15
  0.58691224D-02  0.58588937D-02  0.57864353D-02 -0.65910597D-04 -0.13552315D-12
 -0.51923097D-12  0.11798680D-03  0.20012795D-03  0.22783860D-03 -0.25373707D-03
  0.11798680D-03  0.20012795D-03  0.22783860D-03 -0.25373707D-03
MO    4     MO 0.0        OCC NO =    1.9999999  ORB. ENERGY =    0.000000
  0.37728403D+00  0.69601537D+00  0.11235846D+01  0.14625733D+01  0.12480165D+01
  0.43091009D+00 -0.11062466D-01 -0.50986805D-02  0.14297232D-01  0.22208513D-03
  0.17028079D-03  0.84982049D-04  0.84493484D-04  0.64784244D-04  0.32331878D-04
 -0.25661560D-12 -0.19675657D-12 -0.98195317D-13 -0.15223588D-02 -0.64150683D-04
 -0.48583012D-05 -0.11457512D-13 -0.59517493D-02 -0.58348406D-02 -0.58952041D-02
  0.25747249D-04 -0.27031436D-13 -0.51955044D-13 -0.14173642D-03 -0.24041179D-03
 -0.27370032D-03  0.23640608D-03 -0.14173642D-03 -0.24041179D-03 -0.27370032D-03
  0.23640608D-03  0.59518394D-02  0.10979981D-01  0.17725095D-01  0.23072806D-01
  0.19688068D-01  0.67978166D-02  0.31213035D-03  0.14386059D-03 -0.40340011D-03
  0.90374815D-04  0.69293676D-04  0.34582401D-04 -0.53309552D-03 -0.40874383D-03
 -0.20399182D-03  0.55640298D-12  0.42661452D-12  0.21291054D-12  0.12323525D-03
  0.58215525D-06 -0.38692182D-04  0.32742792D-13 -0.18611642D-03 -0.52227329D-03
 -0.15628849D-03 -0.44645866D-04 -0.14565314D-12 -0.26986523D-13 -0.10169054D-03
 -0.17248640D-03 -0.19636967D-03 -0.14402836D-04 -0.10169054D-03 -0.17248640D-03
 -0.19636968D-03 -0.14402836D-04  0.59518812D-02  0.10980059D-01  0.17725219D-01
  0.23072969D-01  0.19688206D-01  0.67978644D-02  0.31212830D-03  0.14385965D-03
 -0.40339747D-03 -0.90371750D-04 -0.69291326D-04 -0.34581228D-04  0.53310304D-03
  0.40874960D-03  0.20399470D-03 -0.26656880D-11 -0.20438805D-11 -0.10200396D-11
  0.12323598D-03 -0.58157588D-06  0.38691384D-04 -0.15649710D-12 -0.18611737D-03
 -0.52227470D-03 -0.15628875D-03 -0.44645562D-04 -0.21285126D-12 -0.13960686D-12
 -0.10169003D-03 -0.17248554D-03 -0.19636869D-03 -0.14402477D-04 -0.10169003D-03
 -0.17248554D-03 -0.19636870D-03 -0.14402477D-04  0.37728528D+00  0.69601767D+00
  0.11235883D+01  0.14625781D+01  0.12480206D+01  0.43091152D+00 -0.11062503D-01
 -0.50986974D-02  0.14297280D-01 -0.22208509D-03 -0.17028076D-03 -0.84982034D-04
 -0.84494622D-04 -0.64785117D-04 -0.32332314D-04 -0.23095548D-13 -0.17708202D-13
 -0.88376337D-14 -0.15223652D-02  0.64150912D-04  0.48577796D-05  0.70358476D-14
 -0.59517687D-02 -0.58348599D-02 -0.58952232D-02  0.25747463D-04 -0.23485945D-13
 -0.12548087D-12 -0.14173681D-03 -0.24041245D-03 -0.27370108D-03  0.23640692D-03
 -0.14173681D-03 -0.24041245D-03 -0.27370108D-03  0.23640692D-03
MO    5     MO 0.0        OCC NO =    1.9999857  ORB. ENERGY =    0.000000
  0.95326003D-12  0.17585786D-11  0.28388912D-11  0.36953928D-11  0.31532854D-11
  0.10887537D-11 -0.33983201D-12 -0.15662826D-12  0.43920200D-12  0.34326299D-12
  0.26319229D-12  0.13135140D-12 -0.18512332D-11 -0.14194082D-11 -0.70838417D-12
  0.13275808D-01  0.10179048D-01  0.50800581D-02 -0.12670376D-12 -0.39968816D-14
 -0.46155650D-14 -0.12507078D-02 -0.34609853D-13  0.96604530D-13 -0.12656326D-12
 -0.13875762D-12 -0.44880969D-03 -0.17821109D-01 -0.28379405D-02 -0.48136842D-02
 -0.54802094D-02 -0.43798657D-02  0.28379405D-02  0.48136842D-02  0.54802094D-02
  0.43798657D-02  0.22824016D-11  0.42105853D-11  0.67971901D-11  0.88479219D-11
  0.75499478D-11  0.26068155D-11 -0.17836034D-11 -0.82206120D-12  0.23051454D-11
  0.39578858D-11  0.30346558D-11  0.15145059D-11  0.30860133D-12  0.23661593D-12
  0.11808793D-12  0.40953249D+00  0.31400353D+00  0.15670977D+00  0.33163803D-12
 -0.30086801D-13  0.13032377D-12  0.24285672D-01  0.58820793D-12 -0.32152544D-12
 -0.20408119D-12 -0.18039099D-12 -0.13331687D-01 -0.23336076D-01  0.33237286D-01
  0.56376728D-01  0.64182912D-01  0.20494626D-01 -0.33237286D-01 -0.56376728D-01
 -0.64182912D-01 -0.20494626D-01 -0.12048784D-10 -0.22227653D-10 -0.35882324D-10
 -0.46708124D-10 -0.39856127D-10 -0.13761363D-10 -0.89801247D-11 -0.41389313D-11
  0.11605995D-10  0.12735839D-10  0.97650339D-11  0.48734363D-11  0.11554109D-10
  0.88589578D-11  0.44212408D-11  0.40953249D+00  0.31400353D+00  0.15670977D+00
  0.41579287D-11  0.70060484D-12  0.68886287D-12  0.24285672D-01 -0.80522077D-13
 -0.45687950D-12  0.98863285D-12  0.63782855D-12  0.13331687D-01  0.23336076D-01
 -0.33237286D-01 -0.56376728D-01 -0.64182912D-01 -0.20494626D-01  0.33237286D-01
  0.56376728D-01  0.64182912D-01  0.20494626D-01  0.53479050D-12  0.98658404D-12
  0.15926525D-11  0.20731604D-11  0.17690315D-11  0.61080407D-12 -0.47981211D-12
 -0.22114497D-12  0.62011357D-12  0.26354664D-11  0.20207084D-11  0.10084751D-11
  0.40134710D-11  0.30772750D-11  0.15357759D-11  0.13275808D-01  0.10179048D-01
  0.50800581D-02 -0.34237649D-12  0.12401550D-12 -0.41870487D-13 -0.12507078D-02
 -0.25289060D-12  0.67261980D-12 -0.24172025D-12  0.45437643D-12  0.44880969D-03
  0.17821109D-01  0.28379405D-02  0.48136842D-02  0.54802094D-02  0.43798657D-02
 -0.28379405D-02 -0.48136842D-02 -0.54802094D-02 -0.43798657D-02
MO    6     MO 0.0        OCC NO =    1.9999794  ORB. ENERGY =    0.000000
 -0.44216200D-02 -0.81570256D-02 -0.13167968D-01 -0.17140782D-01 -0.14626261D-01
 -0.50500963D-02 -0.67855921D-02 -0.31274732D-02  0.87697613D-02 -0.18440524D-01
 -0.14139024D-01 -0.70563640D-02 -0.41807468D-01 -0.32055315D-01 -0.15997849D-01
  0.23309279D-11  0.17872077D-11  0.89194189D-12 -0.43036610D-02 -0.10010349D-02
  0.95784893D-03  0.15097796D-12 -0.23375511D-02  0.71144682D-02 -0.26857349D-02
  0.28625977D-02 -0.48477163D-12 -0.10222487D-11 -0.65730529D-03 -0.11149142D-02
 -0.12692904D-02  0.28017886D-03 -0.65730529D-03 -0.11149142D-02 -0.12692904D-02
  0.28017886D-03 -0.74078315D-01 -0.13666003D+00 -0.22061166D+00 -0.28717083D+00
 -0.24504339D+00 -0.84607593D-01 -0.99258972D-01 -0.45748369D-01  0.12828320D+00
 -0.76036583D-01 -0.58300029D-01 -0.29095800D-01 -0.11446167D+00 -0.87761946D-01
 -0.43799362D-01  0.23220316D-10  0.17803866D-10  0.88853768D-11  0.41145638D-01
 -0.64302503D-02 -0.57491882D-02  0.13527986D-11  0.47554591D-02 -0.77623256D-02
  0.71544407D-02  0.44415425D-02 -0.42509181D-11 -0.81454973D-12  0.27098456D-01
  0.45964110D-01  0.52328514D-01  0.11021188D-01  0.27098456D-01  0.45964110D-01
  0.52328514D-01  0.11021188D-01 -0.74078315D-01 -0.13666003D+00 -0.22061166D+00
 -0.28717083D+00 -0.24504339D+00 -0.84607593D-01 -0.99258972D-01 -0.45748369D-01
  0.12828320D+00  0.76036582D-01  0.58300029D-01  0.29095800D-01  0.11446167D+00
  0.87761946D-01  0.43799362D-01 -0.67734823D-10 -0.51934766D-10 -0.25919088D-10
  0.41145638D-01  0.64302503D-02  0.57491882D-02 -0.39996986D-11  0.47554591D-02
 -0.77623256D-02  0.71544407D-02  0.44415425D-02 -0.57063389D-11 -0.34017185D-11
  0.27098456D-01  0.45964110D-01  0.52328514D-01  0.11021188D-01  0.27098456D-01
  0.45964110D-01  0.52328514D-01  0.11021188D-01 -0.44216200D-02 -0.81570256D-02
 -0.13167968D-01 -0.17140782D-01 -0.14626261D-01 -0.50500963D-02 -0.67855921D-02
 -0.31274732D-02  0.87697613D-02  0.18440524D-01  0.14139024D-01  0.70563640D-02
  0.41807468D-01  0.32055315D-01  0.15997849D-01 -0.24704039D-11 -0.18941490D-11
 -0.94531310D-12 -0.43036610D-02  0.10010349D-02 -0.95784893D-03  0.53476859D-13
 -0.23375511D-02  0.71144682D-02 -0.26857349D-02  0.28625977D-02 -0.57226386D-12
 -0.30663617D-11 -0.65730529D-03 -0.11149142D-02 -0.12692904D-02  0.28017886D-03
 -0.65730529D-03 -0.11149142D-02 -0.12692904D-02  0.28017886D-03
MO    7     MO 0.0        OCC NO =    1.9999708  ORB. ENERGY =    0.000000
 -0.98930932D-11 -0.18250825D-10 -0.29462491D-10 -0.38351409D-10 -0.32725327D-10
 -0.11299269D-10  0.17903993D-11  0.82519340D-12 -0.23139284D-11  0.12251420D-10
  0.93936120D-11  0.46880707D-11  0.13001438D-10  0.99686784D-11  0.49750692D-11
  0.15575107D-01  0.11942004D-01  0.59598969D-02  0.11731100D-11  0.52125207D-12
 -0.21162735D-12  0.11473485D-03  0.12404174D-11 -0.26161205D-11  0.89482038D-12
 -0.23410647D-11 -0.50075942D-02 -0.19112816D-01 -0.30819129D-02 -0.52275075D-02
 -0.59513325D-02 -0.64227327D-02  0.30819129D-02  0.52275075D-02  0.59513325D-02
  0.64227327D-02  0.29502770D-10  0.54426850D-10  0.87861812D-10  0.11436997D-09
  0.97592105D-10  0.33696209D-10  0.37106301D-10  0.17102260D-10 -0.47956523D-10
  0.65883382D-10  0.50515198D-10  0.25210624D-10  0.53040825D-10  0.40668340D-10
  0.20296352D-10  0.41367137D+00  0.31717697D+00  0.15829354D+00 -0.17702910D-10
  0.30380852D-11  0.34342485D-11  0.24332449D-01  0.22021172D-11  0.17071234D-11
 -0.45167626D-11 -0.33411047D-11 -0.45352615D-01 -0.19452618D-01  0.39248922D-01
  0.66573600D-01  0.75791691D-01  0.32257824D-01 -0.39248922D-01 -0.66573600D-01
 -0.75791691D-01 -0.32257824D-01 -0.15880824D-11 -0.29297019D-11 -0.47294473D-11
 -0.61563351D-11 -0.52532119D-11 -0.18138078D-11 -0.15586701D-10 -0.71838963D-11
  0.20144395D-10  0.50266907D-10  0.38541476D-10  0.19234898D-10  0.27823814D-10
  0.21333536D-10  0.10646929D-10 -0.41367137D+00 -0.31717697D+00 -0.15829354D+00
  0.85678027D-11  0.16890048D-11  0.21703714D-11 -0.24332449D-01 -0.34362827D-11
 -0.17214791D-12  0.28091742D-11  0.24064465D-11 -0.45352615D-01 -0.19452618D-01
  0.39248922D-01  0.66573600D-01  0.75791691D-01  0.32257824D-01 -0.39248922D-01
 -0.66573600D-01 -0.75791691D-01 -0.32257824D-01  0.77465050D-11  0.14290789D-10
  0.23069765D-10  0.30029979D-10  0.25624636D-10  0.88475708D-11 -0.20084199D-12
 -0.92567889D-13  0.25957002D-12  0.84535039D-11  0.64816106D-11  0.32347780D-11
  0.37103330D-11  0.28448480D-11  0.14197785D-11 -0.15575107D-01 -0.11942004D-01
 -0.59598969D-02 -0.19947454D-12  0.31341085D-12  0.21757111D-14 -0.11473485D-03
 -0.68289408D-12  0.10835953D-11 -0.25473818D-12  0.17538635D-11 -0.50075942D-02
 -0.19112816D-01 -0.30819129D-02 -0.52275075D-02 -0.59513325D-02 -0.64227327D-02
  0.30819129D-02  0.52275075D-02  0.59513325D-02  0.64227327D-02
MO    8     MO 0.0        OCC NO =    1.9999687  ORB. ENERGY =    0.000000
  0.38885610D-02  0.71736358D-02  0.11580472D-01  0.15074334D-01  0.12862957D-01
  0.44412699D-02  0.20992608D-02  0.96754739D-03 -0.27131039D-02  0.35020642D-01
  0.26851607D-01  0.13400834D-01  0.26783934D-01  0.20536222D-01  0.10249014D-01
 -0.47998734D-11 -0.36802385D-11 -0.18366969D-11  0.22567270D-02  0.14075893D-02
 -0.40882297D-03  0.38763942D-13  0.26829331D-02 -0.67399965D-02  0.13814117D-02
 -0.69470298D-02  0.15118324D-11  0.64424415D-11  0.74202484D-03  0.12586146D-02
  0.14328882D-02 -0.40287077D-04  0.74202484D-03  0.12586146D-02  0.14328882D-02
 -0.40287081D-04  0.61696511D-01  0.11381802D+00  0.18373757D+00  0.23917172D+00
  0.20408566D+00  0.70465875D-01  0.88493863D-01  0.40786741D-01 -0.11437028D+00
  0.19647344D+00  0.15064337D+00  0.75181602D-01  0.13808274D+00  0.10587309D+00
  0.52838090D-01 -0.13978934D-09 -0.10718160D-09 -0.53491130D-10 -0.44345403D-01
  0.79841310D-02  0.95712785D-02 -0.82330477D-11  0.93703983D-02  0.30518724D-02
 -0.12535483D-01 -0.96677890D-02  0.13986668D-10  0.67611125D-11 -0.30797710D-01
 -0.52238745D-01 -0.59471965D-01 -0.12564794D-01 -0.30797710D-01 -0.52238745D-01
 -0.59471965D-01 -0.12564794D-01 -0.61696511D-01 -0.11381802D+00 -0.18373757D+00
 -0.23917172D+00 -0.20408566D+00 -0.70465875D-01 -0.88493863D-01 -0.40786741D-01
  0.11437028D+00  0.19647344D+00  0.15064337D+00  0.75181602D-01  0.13808274D+00
  0.10587309D+00  0.52838090D-01  0.10499601D-09  0.80504279D-10  0.40177278D-10
  0.44345403D-01  0.79841310D-02  0.95712785D-02  0.61657747D-11 -0.93703983D-02
 -0.30518724D-02  0.12535483D-01  0.96677890D-02  0.12849928D-10  0.47471869D-11
  0.30797710D-01  0.52238745D-01  0.59471965D-01  0.12564794D-01  0.30797710D-01
  0.52238745D-01  0.59471965D-01  0.12564794D-01 -0.38885610D-02 -0.71736358D-02
 -0.11580472D-01 -0.15074334D-01 -0.12862957D-01 -0.44412698D-02 -0.20992608D-02
 -0.96754739D-03  0.27131039D-02  0.35020642D-01  0.26851607D-01  0.13400834D-01
  0.26783934D-01  0.20536222D-01  0.10249014D-01  0.44675970D-11  0.34254700D-11
  0.17095496D-11 -0.22567270D-02  0.14075893D-02 -0.40882297D-03  0.10904265D-12
 -0.26829331D-02  0.67399965D-02 -0.13814117D-02  0.69470298D-02  0.14497151D-11
  0.48629512D-11 -0.74202484D-03 -0.12586146D-02 -0.14328882D-02  0.40287081D-04
 -0.74202484D-03 -0.12586146D-02 -0.14328882D-02  0.40287077D-04
MO    9     MO 0.0        OCC NO =    1.9996679  ORB. ENERGY =    0.000000
  0.14414758D-01  0.26592413D-01  0.42928400D-01  0.55880022D-01  0.47682524D-01
  0.16463630D-01  0.23270685D-01  0.10725437D-01 -0.30075246D-01  0.69290260D-02
  0.53127376D-02  0.26514284D-02  0.37397072D+00  0.28673703D+00  0.14310187D+00
 -0.78004881D-12 -0.59809195D-12 -0.29848980D-12 -0.55445038D-02  0.28557970D-03
  0.16661893D-01 -0.36241058D-13  0.27966763D-02 -0.97519901D-02  0.14007767D-01
  0.93561402D-02 -0.16912414D-13 -0.39263107D-13  0.15474390D-01  0.26247495D-01
  0.29881845D-01  0.12143989D-01  0.15474390D-01  0.26247495D-01  0.29881845D-01
  0.12143989D-01  0.32562877D-01  0.60072150D-01  0.96975076D-01  0.12623273D+00
  0.10771462D+00  0.37191270D-01  0.49748453D-01  0.22929017D-01 -0.64295356D-01
 -0.57312065D-01 -0.43943257D-01 -0.21930765D-01 -0.34170861D+00 -0.26200049D+00
 -0.13075661D+00 -0.47824600D-12 -0.36668870D-12 -0.18300336D-12 -0.19618479D-01
 -0.37371580D-02 -0.17411839D-01 -0.32544864D-13  0.35032344D-02 -0.42000930D-02
  0.65814334D-02 -0.80225070D-02  0.49865130D-13 -0.13172087D-13  0.57070730D-02
  0.96802760D-02  0.11020652D-01  0.67561873D-02  0.57070730D-02  0.96802760D-02
  0.11020652D-01  0.67561873D-02 -0.32562877D-01 -0.60072150D-01 -0.96975076D-01
 -0.12623273D+00 -0.10771462D+00 -0.37191270D-01 -0.49748453D-01 -0.22929017D-01
  0.64295356D-01 -0.57312065D-01 -0.43943257D-01 -0.21930765D-01 -0.34170861D+00
 -0.26200049D+00 -0.13075661D+00  0.61445054D-12  0.47112170D-12  0.23512275D-12
  0.19618479D-01 -0.37371580D-02 -0.17411839D-01  0.38668394D-13 -0.35032344D-02
  0.42000930D-02 -0.65814334D-02  0.80225070D-02  0.53202928D-13 -0.10549550D-13
 -0.57070730D-02 -0.96802760D-02 -0.11020652D-01 -0.67561873D-02 -0.57070730D-02
 -0.96802760D-02 -0.11020652D-01 -0.67561873D-02 -0.14414758D-01 -0.26592413D-01
 -0.42928400D-01 -0.55880022D-01 -0.47682524D-01 -0.16463630D-01 -0.23270685D-01
 -0.10725437D-01  0.30075246D-01  0.69290260D-02  0.53127376D-02  0.26514284D-02
  0.37397072D+00  0.28673703D+00  0.14310187D+00  0.93494731D-12  0.71685830D-12
  0.35776253D-12  0.55445038D-02  0.28557970D-03  0.16661893D-01  0.46755885D-13
 -0.27966763D-02  0.97519901D-02 -0.14007767D-01 -0.93561402D-02 -0.22605377D-13
 -0.46774070D-13 -0.15474390D-01 -0.26247495D-01 -0.29881845D-01 -0.12143989D-01
 -0.15474390D-01 -0.26247495D-01 -0.29881845D-01 -0.12143989D-01
MO   10     MO 0.0        OCC NO =    1.9995180  ORB. ENERGY =    0.000000
  0.65018610D-02  0.11994664D-01  0.19363107D-01  0.25205012D-01  0.21507482D-01
  0.74260167D-02  0.12995282D-01  0.59895137D-02 -0.16795222D-01  0.25617436D-01
  0.19641825D-01  0.98026475D-02  0.40569351D+00  0.31106005D+00  0.15524077D+00
  0.25852989D-11  0.19822432D-11  0.98927829D-12 -0.52263422D-02  0.24436091D-02
  0.19967588D-01  0.13655557D-12  0.14147236D-02 -0.89828604D-02  0.14361335D-01
  0.81326043D-02  0.84199744D-13  0.18804933D-12  0.19567549D-01  0.33190267D-01
  0.37785946D-01  0.15079490D-01  0.19567549D-01  0.33190267D-01  0.37785946D-01
  0.15079490D-01  0.23018686D-01  0.42464982D-01  0.68551647D-01  0.89233876D-01
  0.76143428D-01  0.26290496D-01  0.34673179D-01  0.15980837D-01 -0.44811934D-01
 -0.98125252D-01 -0.75236219D-01 -0.37548146D-01 -0.32853420D+00 -0.25189919D+00
 -0.12571535D+00  0.53529877D-12  0.41043315D-12  0.20483491D-12 -0.14436013D-01
 -0.58891539D-02 -0.17784717D-01  0.40374322D-13  0.67505850D-02 -0.13500245D-01
  0.11922209D-01  0.15089359D-01  0.22245869D-13  0.87792978D-13  0.12925058D-01
  0.21923344D-01  0.24958952D-01  0.14317764D-01  0.12925058D-01  0.21923344D-01
  0.24958952D-01  0.14317764D-01  0.23018686D-01  0.42464982D-01  0.68551647D-01
  0.89233876D-01  0.76143428D-01  0.26290496D-01  0.34673179D-01  0.15980837D-01
 -0.44811934D-01  0.98125252D-01  0.75236219D-01  0.37548146D-01  0.32853420D+00
  0.25189919D+00  0.12571535D+00  0.73743672D-12  0.56541971D-12  0.28218406D-12
 -0.14436013D-01  0.58891539D-02  0.17784717D-01  0.41956988D-13  0.67505850D-02
 -0.13500245D-01  0.11922209D-01  0.15089359D-01  0.69841030D-13  0.21811117D-12
  0.12925058D-01  0.21923344D-01  0.24958952D-01  0.14317764D-01  0.12925058D-01
  0.21923344D-01  0.24958952D-01  0.14317764D-01  0.65018610D-02  0.11994664D-01
  0.19363107D-01  0.25205012D-01  0.21507482D-01  0.74260167D-02  0.12995282D-01
  0.59895137D-02 -0.16795222D-01 -0.25617436D-01 -0.19641825D-01 -0.98026475D-02
 -0.40569351D+00 -0.31106005D+00 -0.15524077D+00 -0.40147926D-11 -0.30782883D-11
 -0.15362816D-11 -0.52263422D-02 -0.24436091D-02 -0.19967588D-01 -0.21389643D-12
  0.14147236D-02 -0.89828604D-02  0.14361335D-01  0.81326043D-02  0.12916020D-12
  0.36396583D-12  0.19567549D-01  0.33190267D-01  0.37785946D-01  0.15079490D-01
  0.19567549D-01  0.33190267D-01  0.37785946D-01  0.15079490D-01
MO   11     MO 0.0        OCC NO =    1.9994522  ORB. ENERGY =    0.000000
  0.63748441D-12  0.11760343D-11  0.18984839D-11  0.24712620D-11  0.21087323D-11
  0.72809460D-12  0.39608564D-12  0.18255551D-12 -0.51190471D-12 -0.62286060D-12
 -0.47757000D-12 -0.23834090D-12 -0.29335893D-11 -0.22492902D-11 -0.11225535D-11
  0.40919249D+00  0.31374285D+00  0.15657967D+00 -0.14657604D-12 -0.41804773D-13
 -0.15676398D-12  0.21363896D-01  0.57160263D-13  0.27972452D-13 -0.14091271D-12
 -0.30855883D-13  0.12966809D-01  0.33381924D-01  0.37017160D-01  0.62788110D-01
  0.71482044D-01  0.25920297D-01 -0.37017160D-01 -0.62788110D-01 -0.71482044D-01
 -0.25920297D-01  0.28105544D-12  0.51849241D-12  0.83700752D-12  0.10895351D-11
  0.92970227D-12  0.32100385D-12  0.10162178D-12  0.46837385D-13 -0.13133692D-12
 -0.43421787D-12 -0.33293072D-12 -0.16615577D-12  0.20027389D-11  0.15355731D-11
  0.76635862D-12  0.49332009D-02  0.37824656D-02  0.18877154D-02 -0.40648464D-13