opted at hf/6-31g*                                                      
SP        RB3LYP                                                      6-31G(d)            
Number of atoms                            I                9
Charge                                     I                0
Multiplicity                               I                1
Number of electrons                        I               32
Number of alpha electrons                  I               16
Number of beta electrons                   I               16
Number of basis functions                  I               70
Number of independant functions            I               70
Number of point charges in /Mol/           I                0
Number of translation vectors              I                0
Info1-9                                    I   N=           9
          19          19           0           0           0         110
           1          18        -502
Num ILSW                                   I              100
ILSW                                       I   N=         100
           0           1           0           0           2           0
           0           0           0           0         402      200000
           0           0          -1           0           0           0
           0      800000           1           0           0           0
           1           1           0           0     1000000           0
           0           0      100000           0          -1           0
           0           0           0           0           0           0
           0           0           0           1           0           0
           0           0           1      720000      810000           0
           0           0           0           0           0           0
           0           0           0           0           0           0
           0           0           0           0           0           0
           0           0           0           0           0           0
           0           0           0           0           0           0
           0           0           0           0           0           0
           0           0           0           0           0           0
           0           0           0           0
Number of contracted shells                I               26
Highest angular momentum                   I                2
Largest degree of contraction              I                6
Number of primitive shells                 I               64
Pure/Cartesian d shells                    I                1
Pure/Cartesian f shells                    I                0
Virial Ratio                               R      2.008087739584531E+00
SCF Energy                                 R     -2.092102008395621E+02
Total Energy                               R     -2.092102008395621E+02
RMS Density                                R      7.888251409451374E-09
Atomic numbers                             I   N=           9
           6           1           1           1           6           8
           7           1           1
Nuclear charges                            R   N=           9
  6.00000000E+00  1.00000000E+00  1.00000000E+00  1.00000000E+00  6.00000000E+00
  8.00000000E+00  7.00000000E+00  1.00000000E+00  1.00000000E+00
Current cartesian coordinates              R   N=          27
  2.57192849E+00 -5.90494404E-01 -4.08577687E-04  2.88028627E+00 -2.11040865E+00
 -1.34028832E+00  3.06255981E+00 -1.27900304E+00  1.86981640E+00  3.78105362E+00
  9.88287556E-01 -4.58453078E-01 -1.49571578E-01  2.89774253E-01 -1.50671455E-02
 -7.28231723E-01  2.47679843E+00  1.07740468E-02 -1.89962078E+00 -1.58780329E+00
 -6.02539934E-02 -3.70457548E+00 -1.10757463E+00  1.61418082E-01 -1.43026640E+00
 -3.38674486E+00  1.95946818E-01
Int Atom Types                             I   N=           9
           0           0           0           0           0           0
           0           0           0
Force Field                                I                0
MM charges                                 R   N=           9
  0.00000000E+00  0.00000000E+00  0.00000000E+00  0.00000000E+00  0.00000000E+00
  0.00000000E+00  0.00000000E+00  0.00000000E+00  0.00000000E+00
Integer atomic weights                     I   N=           9
          12           1           1           1          12          16
          14           1           1
Real atomic weights                        R   N=           9
  1.20000000E+01  1.00782504E+00  1.00782504E+00  1.00782504E+00  1.20000000E+01
  1.59949146E+01  1.40030740E+01  1.00782504E+00  1.00782504E+00
Atom residue info                          I   N=           9
           0           0           0           0           0           0
           0           0           0
Atom fragment info                         I   N=           9
           0           0           0           0           0           0
           0           0           0
Atom residue num                           I   N=           9
           0           0           0           0           0           0
           0           0           0
Nuclear spins                              I   N=           9
           0           1           1           1           0           0
           2           1           1
Nuclear ZEff                               R   N=           9
 -3.60000000E+00 -1.00000000E+00 -1.00000000E+00 -1.00000000E+00 -3.60000000E+00
 -5.60000000E+00 -4.55000000E+00 -1.00000000E+00 -1.00000000E+00
Nuclear QMom                               R   N=           9
  0.00000000E+00  0.00000000E+00  0.00000000E+00  0.00000000E+00  0.00000000E+00
  0.00000000E+00  2.04400000E+00  0.00000000E+00  0.00000000E+00
Nuclear GFac                               R   N=           9
  0.00000000E+00  2.79284600E+00  2.79284600E+00  2.79284600E+00  0.00000000E+00
  0.00000000E+00  4.03761000E-01  2.79284600E+00  2.79284600E+00
MicOpt                                     I   N=           9
          -1          -1          -1          -1          -1          -1
          -1          -1          -1
Constraint Structure                       R   N=          27
  2.57192849E+00 -5.90494404E-01 -4.08577687E-04  2.88028627E+00 -2.11040865E+00
 -1.34028832E+00  3.06255981E+00 -1.27900304E+00  1.86981640E+00  3.78105362E+00
  9.88287556E-01 -4.58453078E-01 -1.49571578E-01  2.89774253E-01 -1.50671455E-02
 -7.28231723E-01  2.47679843E+00  1.07740468E-02 -1.89962078E+00 -1.58780329E+00
 -6.02539934E-02 -3.70457548E+00 -1.10757463E+00  1.61418082E-01 -1.43026640E+00
 -3.38674486E+00  1.95946818E-01
ONIOM Charges                              I   N=          16
           0           0           0           0           0           0
           0           0           0           0           0           0
           0           0           0           0
ONIOM Multiplicities                       I   N=          16
           1           0           0           0           0           0
           0           0           0           0           0           0
           0           0           0           0
Atom Layers                                I   N=           9
           1           1           1           1           1           1
           1           1           1
Atom Modifiers                             I   N=           9
           0           0           0           0           0           0
           0           0           0
Int Atom Modified Types                    I   N=           9
           0           0           0           0           0           0
           0           0           0
Link Atoms                                 I   N=           9
           0           0           0           0           0           0
           0           0           0
Atom Modified MM Charges                   R   N=           9
  0.00000000E+00  0.00000000E+00  0.00000000E+00  0.00000000E+00  0.00000000E+00
  0.00000000E+00  0.00000000E+00  0.00000000E+00  0.00000000E+00
Link Distances                             R   N=          36
  0.00000000E+00  0.00000000E+00  0.00000000E+00  0.00000000E+00  0.00000000E+00
  0.00000000E+00  0.00000000E+00  0.00000000E+00  0.00000000E+00  0.00000000E+00
  0.00000000E+00  0.00000000E+00  0.00000000E+00  0.00000000E+00  0.00000000E+00
  0.00000000E+00  0.00000000E+00  0.00000000E+00  0.00000000E+00  0.00000000E+00
  0.00000000E+00  0.00000000E+00  0.00000000E+00  0.00000000E+00  0.00000000E+00
  0.00000000E+00  0.00000000E+00  0.00000000E+00  0.00000000E+00  0.00000000E+00
  0.00000000E+00  0.00000000E+00  0.00000000E+00  0.00000000E+00  0.00000000E+00
  0.00000000E+00
MxBond                                     I                4
NBond                                      I   N=           9
           4           1           1           1           3           1
           3           1           1
IBond                                      I   N=          36
           2           3           4           5           1           0
           0           0           1           0           0           0
           1           0           0           0           1           6
           7           0           5           0           0           0
           5           8           9           0           7           0
           0           0           7           0           0           0
RBond                                      R   N=          36
  1.00000000E+00  1.00000000E+00  1.00000000E+00  1.00000000E+00  1.00000000E+00
  0.00000000E+00  0.00000000E+00  0.00000000E+00  1.00000000E+00  0.00000000E+00
  0.00000000E+00  0.00000000E+00  1.00000000E+00  0.00000000E+00  0.00000000E+00
  0.00000000E+00  1.00000000E+00  2.00000000E+00  1.50000000E+00  0.00000000E+00
  2.00000000E+00  0.00000000E+00  0.00000000E+00  0.00000000E+00  1.50000000E+00
  1.00000000E+00  1.00000000E+00  0.00000000E+00  1.00000000E+00  0.00000000E+00
  0.00000000E+00  0.00000000E+00  1.00000000E+00  0.00000000E+00  0.00000000E+00
  0.00000000E+00
Shell types                                I   N=          26
           0          -1          -1           2           0           0
           0           0           0           0           0          -1
          -1           2           0          -1          -1           2
           0          -1          -1           2           0           0
           0           0
Number of primitives per shell             I   N=          26
           6           3           1           1           3           1
           3           1           3           1           6           3
           1           1           6           3           1           1
           6           3           1           1           3           1
           3           1
Shell to atom map                          I   N=          26
           1           1           1           1           2           2
           3           3           4           4           5           5
           5           5           6           6           6           6
           7           7           7           7           8           8
           9           9
Primitive exponents                        R   N=          64
  3.04752488E+03  4.57369518E+02  1.03948685E+02  2.92101553E+01  9.28666296E+00
  3.16392696E+00  7.86827235E+00  1.88128854E+00  5.44249258E-01  1.68714478E-01
  8.00000000E-01  1.87311370E+01  2.82539436E+00  6.40121692E-01  1.61277759E-01
  1.87311370E+01  2.82539436E+00  6.40121692E-01  1.61277759E-01  1.87311370E+01
  2.82539436E+00  6.40121692E-01  1.61277759E-01  3.04752488E+03  4.57369518E+02
  1.03948685E+02  2.92101553E+01  9.28666296E+00  3.16392696E+00  7.86827235E+00
  1.88128854E+00  5.44249258E-01  1.68714478E-01  8.00000000E-01  5.48467166E+03
  8.25234946E+02  1.88046958E+02  5.29645000E+01  1.68975704E+01  5.79963534E+00
  1.55396162E+01  3.59993359E+00  1.01376175E+00  2.70005823E-01  8.00000000E-01
  4.17351146E+03  6.27457911E+02  1.42902093E+02  4.02343293E+01  1.28202129E+01
  4.39043701E+00  1.16263619E+01  2.71627981E+00  7.72218397E-01  2.12031498E-01
  8.00000000E-01  1.87311370E+01  2.82539436E+00  6.40121692E-01  1.61277759E-01
  1.87311370E+01  2.82539436E+00  6.40121692E-01  1.61277759E-01
Contraction coefficients                   R   N=          64
  1.83473713E-03  1.40373228E-02  6.88426223E-02  2.32184443E-01  4.67941348E-01
  3.62311985E-01 -1.19332420E-01 -1.60854152E-01  1.14345644E+00  1.00000000E+00
  1.00000000E+00  3.34946043E-02  2.34726953E-01  8.13757326E-01  1.00000000E+00
  3.34946043E-02  2.34726953E-01  8.13757326E-01  1.00000000E+00  3.34946043E-02
  2.34726953E-01  8.13757326E-01  1.00000000E+00  1.83473713E-03  1.40373228E-02
  6.88426223E-02  2.32184443E-01  4.67941348E-01  3.62311985E-01 -1.19332420E-01
 -1.60854152E-01  1.14345644E+00  1.00000000E+00  1.00000000E+00  1.83107443E-03
  1.39501722E-02  6.84450781E-02  2.32714336E-01  4.70192898E-01  3.58520853E-01
 -1.10777550E-01 -1.48026263E-01  1.13076702E+00  1.00000000E+00  1.00000000E+00
  1.83477216E-03  1.39946270E-02  6.85865518E-02  2.32240873E-01  4.69069948E-01
  3.60455199E-01 -1.14961182E-01 -1.69117479E-01  1.14585195E+00  1.00000000E+00
  1.00000000E+00  3.34946043E-02  2.34726953E-01  8.13757326E-01  1.00000000E+00
  3.34946043E-02  2.34726953E-01  8.13757326E-01  1.00000000E+00
P(S=P) Contraction coefficients            R   N=          64
  0.00000000E+00  0.00000000E+00  0.00000000E+00  0.00000000E+00  0.00000000E+00
  0.00000000E+00  6.89990666E-02  3.16423961E-01  7.44308291E-01  1.00000000E+00
  0.00000000E+00  0.00000000E+00  0.00000000E+00  0.00000000E+00  0.00000000E+00
  0.00000000E+00  0.00000000E+00  0.00000000E+00  0.00000000E+00  0.00000000E+00
  0.00000000E+00  0.00000000E+00  0.00000000E+00  0.00000000E+00  0.00000000E+00
  0.00000000E+00  0.00000000E+00  0.00000000E+00  0.00000000E+00  6.89990666E-02
  3.16423961E-01  7.44308291E-01  1.00000000E+00  0.00000000E+00  0.00000000E+00
  0.00000000E+00  0.00000000E+00  0.00000000E+00  0.00000000E+00  0.00000000E+00
  7.08742682E-02  3.39752839E-01  7.27158577E-01  1.00000000E+00  0.00000000E+00
  0.00000000E+00  0.00000000E+00  0.00000000E+00  0.00000000E+00  0.00000000E+00
  0.00000000E+00  6.75797439E-02  3.23907296E-01  7.40895140E-01  1.00000000E+00
  0.00000000E+00  0.00000000E+00  0.00000000E+00  0.00000000E+00  0.00000000E+00
  0.00000000E+00  0.00000000E+00  0.00000000E+00  0.00000000E+00
Coordinates of each shell                  R   N=          78
  2.57192849E+00 -5.90494404E-01 -4.08577687E-04  2.57192849E+00 -5.90494404E-01
 -4.08577687E-04  2.57192849E+00 -5.90494404E-01 -4.08577687E-04  2.57192849E+00
 -5.90494404E-01 -4.08577687E-04  2.88028627E+00 -2.11040865E+00 -1.34028832E+00
  2.88028627E+00 -2.11040865E+00 -1.34028832E+00  3.06255981E+00 -1.27900304E+00
  1.86981640E+00  3.06255981E+00 -1.27900304E+00  1.86981640E+00  3.78105362E+00
  9.88287556E-01 -4.58453078E-01  3.78105362E+00  9.88287556E-01 -4.58453078E-01
 -1.49571578E-01  2.89774253E-01 -1.50671455E-02 -1.49571578E-01  2.89774253E-01
 -1.50671455E-02 -1.49571578E-01  2.89774253E-01 -1.50671455E-02 -1.49571578E-01
  2.89774253E-01 -1.50671455E-02 -7.28231723E-01  2.47679843E+00  1.07740468E-02
 -7.28231723E-01  2.47679843E+00  1.07740468E-02 -7.28231723E-01  2.47679843E+00
  1.07740468E-02 -7.28231723E-01  2.47679843E+00  1.07740468E-02 -1.89962078E+00
 -1.58780329E+00 -6.02539934E-02 -1.89962078E+00 -1.58780329E+00 -6.02539934E-02
 -1.89962078E+00 -1.58780329E+00 -6.02539934E-02 -1.89962078E+00 -1.58780329E+00
 -6.02539934E-02 -3.70457548E+00 -1.10757463E+00  1.61418082E-01 -3.70457548E+00
 -1.10757463E+00  1.61418082E-01 -1.43026640E+00 -3.38674486E+00  1.95946818E-01
 -1.43026640E+00 -3.38674486E+00  1.95946818E-01
Alpha Orbital Energies                     R   N=          70
 -1.91035631E+01 -1.43492027E+01 -1.02819238E+01 -1.01844684E+01 -1.03757882E+00
 -9.05289951E-01 -7.38678630E-01 -5.88379330E-01 -5.41034021E-01 -4.66301632E-01
 -4.47219531E-01 -4.01575163E-01 -3.96098941E-01 -3.67423974E-01 -2.66106201E-01
 -2.43832679E-01  4.09734495E-02  7.62088799E-02  1.25217844E-01  1.43006186E-01
  1.66283405E-01  1.81516846E-01  2.35578095E-01  3.20096649E-01  3.72584898E-01
  5.30123448E-01  5.37973897E-01  5.91163325E-01  6.16385990E-01  6.38180286E-01
  7.02897300E-01  7.18211994E-01  7.47547279E-01  7.73239547E-01  8.59984028E-01
  8.77400192E-01  8.87127250E-01  8.99560845E-01  9.29602853E-01  9.63455064E-01
  1.04243498E+00  1.08850112E+00  1.20310147E+00  1.25256757E+00  1.37848740E+00
  1.38725701E+00  1.44035915E+00  1.61617061E+00  1.70059529E+00  1.78004238E+00
  1.81798912E+00  1.82405402E+00  1.90246850E+00  1.98469870E+00  2.05286873E+00
  2.14546986E+00  2.18877562E+00  2.24577592E+00  2.30050776E+00  2.43164849E+00
  2.45237075E+00  2.60340512E+00  2.66870698E+00  2.85204308E+00  2.99368515E+00
  3.10422670E+00  3.80295879E+00  4.02826542E+00  4.19515159E+00  4.45626066E+00
Alpha MO coefficients                      R   N=        4900
  1.52916653E-05  1.25095607E-04  1.55787049E-05 -1.58121160E-05  1.31866617E-05
 -1.29876024E-03  8.54162527E-04  5.88977766E-04 -4.96627497E-05 -3.97097811E-05
  1.97319534E-05  1.03093774E-06 -8.31999348E-06 -4.92234862E-06 -1.98229195E-05
  6.64709199E-05  1.18544335E-04  3.96931012E-05  1.04359575E-04  2.47714818E-05
 -3.24497215E-04 -2.03600649E-05  3.27985134E-04 -4.23441287E-06 -1.50009844E-04
 -2.91363596E-06 -2.82628296E-03  1.60840633E-03 -4.54624705E-03 -3.47115865E-05
 -9.42727827E-05 -9.85082551E-04 -6.70952578E-05  2.94751770E-04  7.69700193E-06
 -1.35617965E-05  9.92674671E-01  2.54977463E-02  2.87370222E-04 -1.21730275E-03
 -1.11376545E-05  1.57807236E-02  4.95093675E-04 -2.04910038E-03 -3.13157540E-05
 -8.30344509E-03 -7.70284315E-03 -8.35245271E-03 -1.90636659E-04 -4.39630249E-06
  8.65534722E-06  1.31569095E-05  9.25175056E-05  7.32311452E-05 -4.67018885E-05
 -3.98057395E-06 -7.75680369E-04 -1.02920568E-03  5.47691394E-04 -1.85527560E-07
  7.96570498E-05 -1.01973457E-04  3.29909290E-05  1.04571513E-05 -1.85423243E-05
  2.25824778E-05 -1.39927107E-04 -3.06412594E-04  2.15371268E-04  1.64815811E-04
 -3.43187612E-07  5.90693689E-05  2.01489848E-05  1.08331934E-05  1.64003329E-06
  1.15593299E-05  7.00254809E-05  3.47941615E-05 -2.72257938E-05 -8.02356161E-05
 -6.17429127E-06 -1.07090944E-05 -2.30956357E-05 -3.53648387E-07 -5.08525232E-06
  1.16403105E-05 -2.93966019E-05  7.37652255E-06  2.24509790E-06 -2.74587930E-06
 -4.45347768E-05  4.20592851E-05  2.15659443E-04 -2.46333448E-04 -2.29814108E-04
 -1.45070613E-05 -6.33546716E-04  1.91024341E-04  7.95510213E-05  5.84170160E-05
  9.60898849E-05  9.64121212E-05 -1.18641432E-05  4.73849260E-05  6.62254693E-06
  9.87307549E-06 -5.04557189E-06 -9.39473769E-06  6.14240519E-06  3.18823438E-05
  1.08515818E-06  1.53151410E-04  4.21053455E-05  1.56503691E-05 -1.48177294E-05
 -1.57895569E-05 -9.08865644E-05 -1.45698042E-05 -4.07748775E-05 -5.00149563E-06
  1.76484925E-06  9.92575712E-01  3.49516271E-02 -4.66694463E-05 -1.11090845E-04
  2.79959365E-04  4.62065347E-03 -1.12111745E-05  7.25071206E-05 -7.43169319E-05
 -8.45883797E-03 -8.46377977E-03 -8.49582846E-03 -4.96489598E-05 -7.43657402E-06
 -8.13801290E-06  2.99992401E-04 -5.91478656E-04  3.01066282E-04 -5.45983521E-04
  1.06792669E-03 -2.91406134E-04  1.87920145E-04 -9.69960561E-05  2.82098762E-05
  5.65922570E-03 -2.99939737E-03  3.00757777E-04 -1.86071207E-04 -3.56827209E-04
 -2.45745037E-04 -1.00260888E-04  1.46785161E-04  2.95711362E-06  2.32372904E-05
 -2.43141939E-04  7.04306995E-05 -2.45028148E-04  4.00620691E-04 -1.29299024E-04
  2.13249472E-04  9.92884341E-01  4.87716278E-02 -4.98585000E-04  2.68388888E-04
 -1.58754838E-05 -8.53747209E-03 -4.33301619E-03  4.92783651E-03  5.67294010E-05
 -9.11168483E-03 -8.23825795E-03 -9.63437390E-03 -6.16439206E-05  1.12163832E-05
  2.11410296E-05 -8.46187423E-05  8.01421631E-04 -3.77088058E-05 -5.01577669E-05
  5.42728714E-07 -5.60976917E-03 -8.68716573E-05  2.61239614E-03  3.17648647E-05
  4.99209445E-04 -2.94461252E-06  6.29622160E-04  4.08799444E-05  3.09534467E-06
 -1.08663325E-05 -1.92675298E-04 -1.21222819E-04 -3.00549196E-04 -1.55865025E-04
 -6.94102933E-06  1.94504341E-03  1.37099976E-03 -1.51059734E-03  1.81937950E-05
 -3.81812835E-04 -4.97926331E-04 -1.95932932E-05 -3.50943792E-04  2.69012452E-05
 -5.14713769E-05  2.66979152E-04  4.01777309E-04 -2.95524523E-04 -6.73987484E-04
  9.92867311E-01  5.05193623E-02 -9.16158699E-05 -1.13129131E-04  6.42517751E-05
 -1.83059052E-02  1.40508339E-03 -5.43469014E-04 -1.41768833E-04 -9.30779425E-03
 -9.24512706E-03 -9.20188688E-03  7.46936332E-05 -5.33232750E-06  1.06119742E-05
 -3.46273424E-05  2.72201785E-03 -2.14306266E-05  2.87733795E-03 -2.45918188E-06
  2.75371702E-03 -1.34242825E-03 -3.30798550E-04 -1.26890698E-04  3.33341341E-05
  8.26072607E-06  3.74020342E-03  3.79029845E-03 -1.59312971E-04 -4.18588907E-07
 -4.81269816E-04 -2.38828553E-04 -1.46577542E-04  8.71473887E-05  3.15998403E-06
 -5.62708108E-06 -2.77734165E-05 -1.49116067E-04  1.93234663E-05  1.08986437E-05
 -9.09720020E-06  4.32380516E-04 -4.94085804E-04 -3.36494537E-04  3.10708510E-05
 -7.19452079E-05  5.85985223E-05 -1.76561650E-04  3.80796075E-05  1.23821147E-05
 -1.76524584E-06 -5.33224581E-05 -2.85625119E-04 -9.91545592E-05 -2.88815293E-05
 -5.99363707E-07  1.43979423E-03  6.71347507E-04  8.22600985E-04  1.63459801E-05
 -1.20605747E-05  2.08160910E-05 -2.17863890E-04  6.02660379E-05  1.64863667E-05
  1.98899591E-07 -2.21489720E-05  3.45696383E-04 -7.97151889E-05  2.84631716E-04
 -2.06305410E-02  3.84337569E-02 -2.61955503E-02  1.27966981E-02  1.19970243E-04
  3.10493831E-04  8.99747233E-03  6.40656946E-03  3.70331632E-04  5.84253020E-03
  8.73487466E-04 -1.08903485E-03 -4.01897098E-03 -4.22291877E-05 -2.29126859E-04
  7.44786365E-03  6.78088504E-04  7.54233630E-03 -1.94689166E-04  8.93116289E-03
 -2.12492087E-03 -1.34044476E-01  2.61726680E-01 -6.70769204E-02  1.41153924E-01
  1.96620617E-03  7.36962223E-02  3.11788654E-02 -3.58781926E-02  2.22236524E-04
 -1.53149959E-02  1.72506713E-02 -2.29879958E-02 -8.50807296E-03 -1.13129788E-04
  4.58819517E-04 -1.77993233E-01  3.80038430E-01  3.61146891E-02 -1.54584113E-01
 -1.60515697E-03  3.69085172E-01  7.99924559E-03 -5.60716999E-02 -5.88056093E-04
 -1.00929510E-02  9.30512133E-03 -8.30331153E-03 -4.90504181E-03 -6.21389525E-06
  2.29173159E-04 -6.02643702E-02  1.24855510E-01  2.22264495E-02  3.98690346E-02
  6.19540735E-03  1.06783176E-01 -7.33942453E-04  2.54106663E-02  2.80171973E-03
  3.64803107E-03  7.91063883E-03 -5.54687233E-03  4.19532051E-03 -3.22134411E-04
  1.08503685E-04  2.97888334E-02 -1.61196181E-03  2.68526661E-02  2.57686399E-03
 -1.77065509E-02  3.23508484E-02 -1.97150262E-02 -1.12767058E-02 -4.00444345E-05
  2.47374060E-02 -8.07802167E-03 -1.56065428E-02  8.30322191E-04  2.76179961E-03
 -2.18828812E-03 -2.83773550E-04  1.80008928E-03  1.18091113E-04  4.86256765E-04
  1.10276479E-02  3.62902602E-04  8.99066502E-03  5.02084628E-05  3.76617887E-03
  2.49664223E-03 -3.21740547E-02  6.70088939E-02 -5.58925421E-02 -2.06221064E-01
 -9.71197364E-04  8.71908220E-03  1.38292995E-02  8.81586646E-03 -4.31817111E-04
  1.03832147E-02 -5.87755206E-03 -2.55179725E-03  2.01875867E-02 -3.47426803E-05
 -4.55023970E-04  8.55654473E-02 -1.87092630E-01 -2.85087170E-02  4.57065379E-02
  7.00222943E-04 -1.81517927E-01 -1.32545574E-02  7.27010341E-03  2.19660226E-04
  1.84198431E-03  1.21771890E-03  2.36764391E-03  3.66993751E-03  5.96406365E-05
 -8.81742660E-05 -1.87589449E-01  3.89924469E-01  2.11660714E-02  1.52918798E-03
  2.42553004E-02  4.10975178E-01  1.25894593E-02 -2.16557478E-03  1.26145669E-02
  8.79780027E-03  6.42089306E-03 -1.67111549E-02 -4.67420775E-03 -1.31532508E-03
 -2.39215479E-03  1.13073154E-01  2.99413127E-03  1.23665146E-01  2.99602661E-03
 -1.82864523E-01  3.50606193E-01 -2.92347454E-02  1.24029257E-03  3.14100109E-03
  3.22373134E-01 -3.00993566E-03 -6.09646694E-03  1.28416866E-03 -1.30034938E-03
  6.01100561E-04  1.01220465E-03  1.11737495E-03 -1.42954174E-04  8.33393480E-05
  1.17934174E-01  2.43123827E-02  1.18816935E-01  2.55856649E-02  1.12471485E-01
  2.33635266E-02 -5.77064913E-02  1.18167903E-01  1.64279156E-01 -8.59347392E-02
 -4.42571856E-04  7.82052752E-02  2.69060622E-02 -2.73543390E-02  1.48052591E-03
  9.16921656E-03 -9.03189780E-03 -4.25985511E-03 -5.60997356E-03  4.19561037E-04
  4.52404216E-05  3.72010839E-02 -8.51584532E-02  3.48312573E-02  9.66698075E-03
  2.91911476E-04 -7.98049767E-02  1.76377654E-02 -3.91682135E-03 -7.75377098E-04
  2.16791509E-03 -1.00993890E-04 -1.85952285E-04 -4.47273879E-03 -9.20531897E-05
  7.35385583E-05  4.36771064E-02 -9.39401674E-02  8.89810259E-02  1.23719503E-02
 -9.78360228E-03 -1.16524783E-01  3.57452917E-02  6.24164297E-03 -5.76101874E-03
  4.54545314E-04 -3.36240021E-03  3.14738535E-03  4.77002712E-03  1.78529240E-03
  5.83215602E-04 -6.88472653E-02 -1.35398159E-02 -2.90981370E-02 -1.66716116E-03
  5.52009514E-02 -1.07777047E-01 -1.24100668E-01 -1.31865774E-03 -4.69864337E-03
 -1.29392700E-01 -3.13805626E-02 -2.75196020E-03 -6.25460689E-03  1.13614832E-02
 -6.25029498E-03 -4.02084016E-03 -3.45766281E-03  5.92007544E-04  9.17405323E-04
 -5.31392681E-02 -2.86536962E-02 -6.11386331E-02 -2.77841823E-02 -7.87935356E-02
 -4.11430841E-02 -1.09673735E-01  2.45483678E-01 -1.17997613E-01 -1.89223534E-01
 -1.32026185E-02  1.53966473E-01  9.37046467E-03 -4.85775477E-02  1.14268812E-03
 -4.12440679E-03 -1.03154499E-02 -1.08754865E-02  1.07561442E-02  1.25576662E-03
  1.11509591E-03  5.21351886E-02 -1.18395729E-01 -3.42835565E-02 -7.54884223E-02
 -4.98537657E-03 -1.40353517E-01 -1.64367148E-02 -4.91406427E-02 -3.85320092E-03
 -2.50397151E-03  1.17107047E-02 -8.86705597E-04  1.59156025E-03 -1.63806982E-04
  7.70594114E-04  2.73813738E-02 -6.12159848E-02  2.72847137E-01  2.94551236E-01
 -3.30594140E-02 -7.15653078E-02  1.25377719E-01  1.42508359E-01 -1.76423960E-02
 -3.43533478E-03 -5.93909038E-03  1.41742861E-03  1.43395323E-02  3.66573205E-03
  4.50689766E-03 -1.27790112E-01 -5.27014927E-02 -1.45416850E-01 -6.34663584E-02
 -3.61683332E-02  7.17560913E-02  1.10296259E-01 -3.65760635E-03  4.04363261E-03
  8.98963786E-02  4.84195421E-02  3.33613552E-03 -3.30384977E-03 -5.39659714E-03
  2.76778722E-03  4.03297014E-03  3.33771089E-03 -2.01150182E-04 -7.30741862E-04
  3.69922382E-02  1.23114018E-02  4.78558791E-02  2.36369134E-02  6.15981460E-02
  2.13355243E-02  8.82152944E-03 -1.72003561E-02 -1.26708569E-01  2.95460223E-02
 -2.65735045E-03 -2.90050406E-03 -3.78630218E-02  1.75009963E-02  5.47951191E-04
  1.91019056E-02 -1.64450160E-02  2.52952303E-04  1.76662980E-03  3.02440675E-04
  1.42728690E-04  2.42315043E-02 -4.91051978E-02 -5.90220049E-02 -5.00476275E-02
 -1.69152106E-03 -1.02335805E-01 -3.21142023E-02 -1.48718269E-02 -7.17097666E-04
  1.41815312E-03  6.33915763E-03  1.13653434E-03  3.30443057E-03 -7.15592342E-05
  1.84813805E-04 -2.66545755E-03  8.59765971E-03 -2.98609999E-01  3.49187323E-01
 -7.20049229E-03  3.44437158E-03 -1.54777728E-01  1.63868101E-01 -3.43975495E-03
  1.31175936E-02 -1.44004486E-02  5.63139670E-04  4.30493119E-04 -6.11808123E-03
  6.76525985E-03  2.10746543E-01  9.40562246E-02 -2.31269842E-01 -1.16370976E-01
  1.54342937E-02 -2.71535309E-02 -1.82415677E-01  2.56645443E-01  2.57864341E-02
 -3.94725154E-02 -5.97677383E-02  1.29075392E-01  8.70871699E-03  1.25939607E-02
 -3.40006065E-03 -1.13753249E-02 -4.62339227E-03 -1.71444203E-03 -6.36795830E-03
 -1.54052415E-01 -1.08585178E-01 -7.84060393E-02 -5.35558588E-02  3.11115609E-02
  7.66239605E-03 -6.85917880E-02  1.57722410E-01  2.57291573E-01  1.33716351E-01
  2.69252677E-02  1.58788043E-01  7.10790908E-02 -1.26818773E-02  9.86271037E-03
 -5.12952773E-04 -1.27682792E-02 -3.81809189E-03  2.30704305E-03 -3.33810490E-04
 -7.60407363E-04  6.74377130E-02 -1.47170263E-01  2.16551961E-01 -1.65275333E-01
  1.38291091E-02 -2.47935215E-01  1.21445681E-01 -8.40800926E-02  7.30827908E-03
  8.07291627E-03  1.21312372E-02 -8.73688311E-04 -1.74663478E-02  1.64306402E-04
 -1.24797089E-03  6.28772108E-03 -1.31691688E-02 -1.72008230E-01 -4.62242943E-02
  2.53374506E-02 -3.12940783E-02 -1.07360181E-01 -3.26505065E-02  1.75818075E-02
  8.86883234E-03 -2.72377033E-03  8.78007345E-04  2.39451569E-04 -2.16564566E-03
  1.74053426E-04  9.04423856E-02  3.88014137E-02 -9.60964520E-03 -1.56563868E-02
  1.21041728E-03 -2.96436045E-03  3.00123197E-03 -2.89158528E-02  3.50421492E-01
 -5.18572627E-03 -4.77779652E-04 -1.80701484E-02  1.60004807E-01 -2.08916205E-03
 -9.07572943E-03  1.14045929E-02 -2.75852625E-03 -3.50100849E-04 -1.17599040E-02
 -1.28742355E-01 -1.02490551E-01  2.01029507E-01  1.54717662E-01 -6.02450586E-02
 -4.01963684E-02  2.19783126E-03 -7.22151669E-03 -2.69986411E-02 -1.78594316E-02
  2.65056807E-01  2.38880215E-03 -7.65075394E-03 -3.43538621E-03  1.17644714E-01
 -5.28724524E-04  1.61992449E-05  4.92140902E-04 -7.47653509E-04  1.50664754E-03
  5.71536881E-04 -4.02392705E-03  9.99148764E-03 -2.51389599E-02  5.69544547E-03
  1.92318921E-01  1.16516444E-02 -1.50563334E-02  4.48673444E-03  1.07017150E-01
 -5.16740634E-04  2.68614936E-04  3.95190757E-04  1.76299389E-03  4.17551345E-03
 -1.53740961E-02  5.59913818E-03 -1.20051547E-02  2.15000789E-02  1.22054145E-02
  1.59034819E-01 -2.15017729E-02  9.73445890E-03  9.55186629E-03  1.04975434E-01
 -1.59476607E-03 -6.12656746E-04  2.99638354E-03  1.04456844E-04  6.46289732E-03
  5.03129851E-03 -6.86677147E-03 -5.19993468E-03  2.99025360E-03  3.61287198E-03