 b3lyp/6-31g(d)                                          
GAUSSIAN             20 MOL ORBITALS    148 PRIMITIVES        7 NUCLEI
  C    1    (CENTRE  1)  -2.81834668  1.38640728  0.00000000  CHARGE =  6.0
  H    2    (CENTRE  2)  -3.63815094  0.47922518  1.66770837  CHARGE =  1.0
  H    3    (CENTRE  3)  -3.24014336  3.40654554  0.00000000  CHARGE =  1.0
  H    4    (CENTRE  4)  -3.63815094  0.47922518 -1.66770837  CHARGE =  1.0
  C    5    (CENTRE  5)   0.00000000  1.02701406  0.00000000  CHARGE =  6.0
  O    6    (CENTRE  6)   1.59718276  2.60234753  0.00000000  CHARGE =  8.0
  Cl   7    (CENTRE  7)   0.86170960 -2.33319436  0.00000000  CHARGE = 17.0
CENTRE ASSIGNMENTS    1  1  1  1  1  1  1  1  1  1  1  1  1  1  1  1  1  1  1  1
CENTRE ASSIGNMENTS    1  1  1  1  1  1  1  1  2  2  2  2  3  3  3  3  4  4  4  4
CENTRE ASSIGNMENTS    5  5  5  5  5  5  5  5  5  5  5  5  5  5  5  5  5  5  5  5
CENTRE ASSIGNMENTS    5  5  5  5  5  5  5  5  6  6  6  6  6  6  6  6  6  6  6  6
CENTRE ASSIGNMENTS    6  6  6  6  6  6  6  6  6  6  6  6  6  6  6  6  7  7  7  7
CENTRE ASSIGNMENTS    7  7  7  7  7  7  7  7  7  7  7  7  7  7  7  7  7  7  7  7
CENTRE ASSIGNMENTS    7  7  7  7  7  7  7  7  7  7  7  7  7  7  7  7  7  7  7  7
CENTRE ASSIGNMENTS    7  7  7  7  7  7  7  7
TYPE ASSIGNMENTS      1  1  1  1  1  1  1  1  1  2  2  2  3  3  3  4  4  4  1  2
TYPE ASSIGNMENTS      3  4  5  6  7  8  9 10  1  1  1  1  1  1  1  1  1  1  1  1
TYPE ASSIGNMENTS      1  1  1  1  1  1  1  1  1  2  2  2  3  3  3  4  4  4  1  2
TYPE ASSIGNMENTS      3  4  5  6  7  8  9 10  1  1  1  1  1  1  1  1  1  2  2  2
TYPE ASSIGNMENTS      3  3  3  4  4  4  1  2  3  4  5  6  7  8  9 10  1  1  1  1
TYPE ASSIGNMENTS      1  1  1  1  1  1  1  1  2  2  2  2  2  2  3  3  3  3  3  3
TYPE ASSIGNMENTS      4  4  4  4  4  4  1  1  1  2  2  2  3  3  3  4  4  4  1  2
TYPE ASSIGNMENTS      3  4  5  6  7  8  9 10
EXPONENTS  0.3047525D+04 0.4573695D+03 0.1039487D+03 0.2921016D+02 0.9286663D+01
EXPONENTS  0.3163927D+01 0.7868272D+01 0.1881289D+01 0.5442493D+00 0.7868272D+01
EXPONENTS  0.1881289D+01 0.5442493D+00 0.7868272D+01 0.1881289D+01 0.5442493D+00
EXPONENTS  0.7868272D+01 0.1881289D+01 0.5442493D+00 0.1687145D+00 0.1687145D+00
EXPONENTS  0.1687145D+00 0.1687145D+00 0.8000000D+00 0.8000000D+00 0.8000000D+00
EXPONENTS  0.8000000D+00 0.8000000D+00 0.8000000D+00 0.1873114D+02 0.2825394D+01
EXPONENTS  0.6401217D+00 0.1612778D+00 0.1873114D+02 0.2825394D+01 0.6401217D+00
EXPONENTS  0.1612778D+00 0.1873114D+02 0.2825394D+01 0.6401217D+00 0.1612778D+00
EXPONENTS  0.3047525D+04 0.4573695D+03 0.1039487D+03 0.2921016D+02 0.9286663D+01
EXPONENTS  0.3163927D+01 0.7868272D+01 0.1881289D+01 0.5442493D+00 0.7868272D+01
EXPONENTS  0.1881289D+01 0.5442493D+00 0.7868272D+01 0.1881289D+01 0.5442493D+00
EXPONENTS  0.7868272D+01 0.1881289D+01 0.5442493D+00 0.1687145D+00 0.1687145D+00
EXPONENTS  0.1687145D+00 0.1687145D+00 0.8000000D+00 0.8000000D+00 0.8000000D+00
EXPONENTS  0.8000000D+00 0.8000000D+00 0.8000000D+00 0.5484672D+04 0.8252349D+03
EXPONENTS  0.1880470D+03 0.5296450D+02 0.1689757D+02 0.5799635D+01 0.1553962D+02
EXPONENTS  0.3599934D+01 0.1013762D+01 0.1553962D+02 0.3599934D+01 0.1013762D+01
EXPONENTS  0.1553962D+02 0.3599934D+01 0.1013762D+01 0.1553962D+02 0.3599934D+01
EXPONENTS  0.1013762D+01 0.2700058D+00 0.2700058D+00 0.2700058D+00 0.2700058D+00
EXPONENTS  0.8000000D+00 0.8000000D+00 0.8000000D+00 0.8000000D+00 0.8000000D+00
EXPONENTS  0.8000000D+00 0.2518010D+05 0.3780350D+04 0.8604740D+03 0.2421450D+03
EXPONENTS  0.7733490D+02 0.2624700D+02 0.4917650D+03 0.1169840D+03 0.3741530D+02
EXPONENTS  0.1378340D+02 0.5452150D+01 0.2225880D+01 0.4917650D+03 0.1169840D+03
EXPONENTS  0.3741530D+02 0.1378340D+02 0.5452150D+01 0.2225880D+01 0.4917650D+03
EXPONENTS  0.1169840D+03 0.3741530D+02 0.1378340D+02 0.5452150D+01 0.2225880D+01
EXPONENTS  0.4917650D+03 0.1169840D+03 0.3741530D+02 0.1378340D+02 0.5452150D+01
EXPONENTS  0.2225880D+01 0.3186490D+01 0.1144270D+01 0.4203770D+00 0.3186490D+01
EXPONENTS  0.1144270D+01 0.4203770D+00 0.3186490D+01 0.1144270D+01 0.4203770D+00
EXPONENTS  0.3186490D+01 0.1144270D+01 0.4203770D+00 0.1426570D+00 0.1426570D+00
EXPONENTS  0.1426570D+00 0.1426570D+00 0.7500000D+00 0.7500000D+00 0.7500000D+00
EXPONENTS  0.7500000D+00 0.7500000D+00 0.7500000D+00
MO    1     MO 0.0        OCC NO =    2.0000000  ORB. ENERGY = -101.544595
 -0.38110883D-05 -0.70307137D-05 -0.11349752D-04 -0.14774005D-04 -0.12606685D-04
 -0.43527854D-05 -0.62964354D-06 -0.29020213D-06  0.81375707D-06 -0.12536085D-04
 -0.96118745D-05 -0.47969990D-05  0.15578579D-04  0.11944666D-04  0.59612255D-05
  0.00000000D+00  0.00000000D+00  0.00000000D+00  0.26013046D-04 -0.20773441D-05
  0.10294263D-04  0.00000000D+00 -0.32611571D-04 -0.28774701D-04 -0.26565148D-04
  0.46110575D-04  0.00000000D+00  0.00000000D+00  0.11965216D-05  0.20295272D-05
  0.23105450D-05 -0.10078970D-04 -0.27173526D-05 -0.46091443D-05 -0.52473479D-05
 -0.68546806D-05  0.11965216D-05  0.20295272D-05  0.23105450D-05 -0.10078970D-04
 -0.17752031D-05 -0.32749031D-05 -0.52867090D-05 -0.68817243D-05 -0.58721879D-05
 -0.20275254D-05 -0.15721383D-04 -0.72459710D-05  0.20318459D-04  0.22476708D-04
  0.17233714D-04  0.86008312D-05 -0.86304307D-04 -0.66172669D-04 -0.33024799D-04
  0.00000000D+00  0.00000000D+00  0.00000000D+00 -0.29499772D-04 -0.64156887D-05
 -0.25791299D-04  0.00000000D+00  0.32366425D-04 -0.16578800D-04 -0.99802348D-05
  0.11156474D-05  0.00000000D+00  0.00000000D+00 -0.79403022D-05 -0.14614395D-04
 -0.23648849D-04 -0.31087074D-04 -0.26663203D-04 -0.91166020D-05  0.22947754D-04
  0.10239243D-04 -0.30236622D-04  0.34231283D-04  0.26373358D-04  0.11579325D-04
  0.40008959D-04  0.30824746D-04  0.13533724D-04  0.00000000D+00  0.00000000D+00
  0.00000000D+00  0.61451426D-04 -0.25780123D-04 -0.73680888D-06  0.00000000D+00
 -0.72232249D-05 -0.59911744D-04 -0.41163016D-04  0.10026142D-04  0.00000000D+00
  0.00000000D+00  0.26008451D+01  0.48029170D+01  0.77926187D+01  0.10346676D+02
  0.89418577D+01  0.27975194D+01 -0.25938282D-02 -0.11811777D-01 -0.18404999D-01
  0.34815716D-02  0.22734720D-01  0.91655786D-02 -0.18502120D-03 -0.23359914D-03
 -0.24069702D-03 -0.17443005D-03 -0.75671055D-04 -0.13729665D-04  0.54379354D-03
  0.68656835D-03  0.70742966D-03  0.51266522D-03  0.22240387D-03  0.40352690D-04
  0.00000000D+00  0.00000000D+00  0.00000000D+00  0.00000000D+00  0.00000000D+00
  0.00000000D+00  0.90013133D-02 -0.10212186D-02 -0.82952215D-02 -0.15084861D-05
  0.94889333D-05  0.62361933D-05  0.36583677D-05 -0.23012482D-04 -0.15123964D-04
  0.00000000D+00  0.00000000D+00  0.00000000D+00  0.25484515D-03  0.92308838D-08
  0.36911227D-06  0.00000000D+00  0.75232530D-02  0.75094156D-02  0.75251749D-02
  0.14813863D-04  0.00000000D+00  0.00000000D+00
MO    2     MO 0.0        OCC NO =    2.0000000  ORB. ENERGY =  -19.192538
  0.69438258D-05  0.12810003D-04  0.20679316D-04  0.26918325D-04  0.22969456D-04
  0.79308011D-05 -0.23686362D-04 -0.10917022D-04  0.30612470D-04  0.37609909D-04
  0.28836893D-04  0.14391630D-04 -0.53776012D-04 -0.41232035D-04 -0.20577675D-04
  0.00000000D+00  0.00000000D+00  0.00000000D+00 -0.16603944D-03 -0.43812871D-04
  0.12872007D-03  0.00000000D+00  0.55449882D-04  0.26414915D-04  0.21273784D-05
  0.11231695D-04  0.00000000D+00  0.00000000D+00  0.78938802D-05  0.13389515D-04
  0.15243490D-04  0.26818771D-04  0.25807285D-06  0.43774041D-06  0.49835198D-06
 -0.58120357D-04  0.78938802D-05  0.13389515D-04  0.15243490D-04  0.26818771D-04
 -0.54648829D-05 -0.10081642D-04 -0.16274896D-04 -0.21185079D-04 -0.18077266D-04
 -0.62416456D-05 -0.14330611D-03 -0.66049653D-04  0.18521012D-03 -0.17206701D-03
 -0.13193007D-03 -0.65842352D-04 -0.16687334D-03 -0.12794789D-03 -0.63854967D-04
  0.00000000D+00  0.00000000D+00  0.00000000D+00 -0.58613867D-03 -0.42675556D-03
 -0.40685152D-03  0.00000000D+00 -0.64732023D-03 -0.63744693D-03 -0.46540445D-04
 -0.11871866D-02  0.00000000D+00  0.00000000D+00  0.82566498D+00  0.15196643D+01
  0.24591037D+01  0.32325607D+01  0.27725485D+01  0.94798142D+00 -0.15819633D-01
 -0.70586895D-02  0.20844405D-01 -0.28813181D-02 -0.22199003D-02 -0.97465579D-03
 -0.28397776D-02 -0.21878955D-02 -0.96060398D-03  0.00000000D+00  0.00000000D+00
  0.00000000D+00  0.39876361D-02 -0.38038077D-03 -0.38583165D-03  0.00000000D+00
 -0.87888888D-02 -0.87920635D-02 -0.92188370D-02  0.80323602D-03  0.00000000D+00
  0.00000000D+00  0.44641372D-06  0.82438130D-06  0.13375391D-05  0.17759221D-05
  0.15347965D-05  0.48017125D-06 -0.10388406D-05 -0.47306735D-05 -0.73712903D-05
  0.13943861D-05  0.91053645D-05  0.36708582D-05 -0.21058761D-03 -0.26587808D-03
 -0.27395676D-03 -0.19853296D-03 -0.86127352D-04 -0.15626843D-04  0.44661341D-04
  0.56387325D-04  0.58100648D-04  0.42104796D-04  0.18265857D-04  0.33141350D-05
  0.00000000D+00  0.00000000D+00  0.00000000D+00  0.00000000D+00  0.00000000D+00
  0.00000000D+00 -0.10240255D-04  0.11617792D-05  0.94369766D-05 -0.77704347D-05
  0.48878899D-04  0.32123554D-04  0.67084093D-06 -0.42198367D-05 -0.27733062D-05
  0.00000000D+00  0.00000000D+00  0.00000000D+00 -0.64440714D-04  0.38065696D-04
 -0.20686683D-04  0.00000000D+00 -0.36516732D-04  0.14447880D-04  0.26661905D-04
  0.17199282D-03  0.00000000D+00  0.00000000D+00
MO    3     MO 0.0        OCC NO =    2.0000000  ORB. ENERGY =  -10.349623
  0.48762563D-03  0.89957408D-03  0.14521915D-02  0.18903218D-02  0.16130150D-02
  0.55693533D-03  0.67992379D-04  0.31337625D-04 -0.87873973D-04 -0.35862646D-03
 -0.27497203D-03 -0.13723031D-03 -0.82991430D-05 -0.63632565D-05 -0.31757109D-05
  0.00000000D+00  0.00000000D+00  0.00000000D+00  0.71820574D-03  0.28790053D-03
 -0.12850521D-03  0.00000000D+00 -0.51284886D-03 -0.15978315D-03 -0.68961687D-04
 -0.52406450D-04  0.00000000D+00  0.00000000D+00 -0.34377252D-04 -0.58310325D-04
 -0.66384244D-04  0.21145057D-04 -0.14007396D-04 -0.23759195D-04 -0.27049003D-04
  0.28278849D-04 -0.34377252D-04 -0.58310325D-04 -0.66384244D-04  0.21145057D-04
  0.53256210D+00  0.98247309D+00  0.15860162D+01  0.20645218D+01  0.17616602D+01
  0.60825894D+00 -0.19405675D-01 -0.89440579D-02  0.25080072D-01  0.10470605D-02
  0.80281960D-03  0.40066325D-03  0.20609262D-03  0.15801875D-03  0.78862430D-04
  0.00000000D+00  0.00000000D+00  0.00000000D+00 -0.17284165D-02  0.48653843D-03
  0.47280133D-03  0.00000000D+00 -0.96691213D-02 -0.99955120D-02 -0.10537965D-01
  0.14678097D-02  0.00000000D+00  0.00000000D+00 -0.14373641D-03 -0.26455173D-03
 -0.42809463D-03 -0.56274237D-03 -0.48266086D-03 -0.16502995D-03 -0.30670333D-03
 -0.13685043D-03  0.40412114D-03 -0.36979288D-04 -0.28490548D-04 -0.12508885D-04
  0.38344037D-04  0.29542013D-04  0.12970535D-04  0.00000000D+00  0.00000000D+00
  0.00000000D+00 -0.10187428D-02  0.40160321D-03  0.43194343D-03  0.00000000D+00
  0.19014549D-03  0.23716221D-05  0.49889314D-03 -0.51504597D-03  0.00000000D+00
  0.00000000D+00 -0.20223210D-04 -0.37345707D-04 -0.60592523D-04 -0.80451932D-04
 -0.69528581D-04 -0.21752477D-04  0.59847015D-05  0.27253140D-04  0.42465582D-04
 -0.80329788D-05 -0.52455484D-04 -0.21147604D-04  0.23944382D-03  0.30231059D-03
  0.31149626D-03  0.22573736D-03  0.97929134D-04  0.17768144D-04  0.25286654D-03
  0.31925749D-03  0.32895810D-03  0.23839172D-03  0.10341884D-03  0.18764189D-04
  0.00000000D+00  0.00000000D+00  0.00000000D+00  0.00000000D+00  0.00000000D+00
  0.00000000D+00 -0.16202065D-04  0.18381595D-05  0.14931123D-04  0.11212309D-04
 -0.70529559D-04 -0.46352519D-04 -0.43183195D-05  0.27163821D-04  0.17852253D-04
  0.00000000D+00  0.00000000D+00  0.00000000D+00  0.42069977D-03 -0.83114045D-04
  0.18361171D-03  0.00000000D+00 -0.11323566D-03 -0.25744072D-03 -0.12276161D-03
 -0.21608022D-03  0.00000000D+00  0.00000000D+00
MO    4     MO 0.0        OCC NO =    2.0000000  ORB. ENERGY =  -10.227468
  0.53252889D+00  0.98241182D+00  0.15859173D+01  0.20643931D+01  0.17615504D+01
  0.60822101D+00 -0.20105245D-01 -0.92664891D-02  0.25984203D-01  0.36820230D-03
  0.28231417D-03  0.14089456D-03 -0.17319857D-03 -0.13279768D-03 -0.66275350D-04
  0.00000000D+00  0.00000000D+00  0.00000000D+00 -0.33754099D-02 -0.25524273D-03
  0.48915463D-04  0.00000000D+00 -0.10328702D-01 -0.10224293D-01 -0.10231663D-01
 -0.21799690D-04  0.00000000D+00  0.00000000D+00  0.40227404D-07  0.68233291D-07
  0.77681190D-07  0.48937208D-03 -0.47747710D-05 -0.80989153D-05 -0.92203288D-05
  0.47810889D-03  0.40227404D-07  0.68233291D-07  0.77681190D-07  0.48937208D-03
 -0.61833291D-03 -0.11407035D-02 -0.18414491D-02 -0.23970196D-02 -0.20453812D-02
 -0.70622096D-03  0.11043950D-03  0.50901466D-04 -0.14273302D-03  0.24792040D-03
  0.19008964D-03  0.94868053D-04 -0.15895435D-03 -0.12187611D-03 -0.60824721D-04
  0.00000000D+00  0.00000000D+00  0.00000000D+00  0.85224085D-03 -0.49670512D-03
  0.13217775D-03  0.00000000D+00 -0.59986109D-03 -0.12350311D-03 -0.16819448D-03
  0.77697032D-04  0.00000000D+00  0.00000000D+00 -0.25621565D-04 -0.47157357D-04
 -0.76309506D-04 -0.10031098D-03 -0.86036145D-04 -0.29417219D-04  0.93881830D-04
  0.41889890D-04 -0.12370140D-03 -0.92704017D-05 -0.71423447D-05 -0.31358740D-05
  0.52617201D-04  0.40538717D-04  0.17798680D-04  0.00000000D+00  0.00000000D+00
  0.00000000D+00  0.14673854D-03  0.62573642D-04 -0.13414877D-03  0.00000000D+00
 -0.11380381D-03  0.63409274D-04 -0.20894534D-03  0.87934318D-04  0.00000000D+00
  0.00000000D+00 -0.21635353D-05 -0.39953477D-05 -0.64823568D-05 -0.86069717D-05
 -0.74383612D-05 -0.23271405D-05  0.94425759D-05  0.42999612D-04  0.67001584D-04
 -0.12674318D-04 -0.82763508D-04 -0.33366386D-04 -0.18171814D-03 -0.22942884D-03
 -0.23640001D-03 -0.17131606D-03 -0.74320148D-04 -0.13484558D-04  0.98089940D-04
  0.12384378D-03  0.12760676D-03  0.92474986D-04  0.40117398D-04  0.72788523D-05
  0.00000000D+00  0.00000000D+00  0.00000000D+00  0.00000000D+00  0.00000000D+00
  0.00000000D+00  0.41072398D-04 -0.46597529D-05 -0.37850548D-04 -0.86412425D-05
  0.54356601D-04  0.35723538D-04  0.59886296D-05 -0.37670687D-04 -0.24757439D-04
  0.00000000D+00  0.00000000D+00  0.00000000D+00  0.12404619D-03 -0.12670450D-04
  0.61120343D-04  0.00000000D+00 -0.71704582D-04 -0.50052323D-04 -0.16298574D-03
  0.35153463D-04  0.00000000D+00  0.00000000D+00
MO    5     MO 0.0        OCC NO =    2.0000000  ORB. ENERGY =   -9.462374
 -0.26861874D-04 -0.49554912D-04 -0.79996993D-04 -0.10413232D-03 -0.88856293D-04
 -0.30679943D-04  0.15386597D-03  0.70916683D-04 -0.19885778D-03 -0.85810392D-04
 -0.65793966D-04 -0.32835800D-04  0.24669445D-03  0.18914966D-03  0.94398937D-04
  0.00000000D+00  0.00000000D+00  0.00000000D+00  0.25755279D-03  0.19734344D-03
 -0.26579677D-03  0.00000000D+00  0.97034309D-04 -0.64418854D-04 -0.33511361D-04
 -0.28475641D-03  0.00000000D+00  0.00000000D+00 -0.63467836D-04 -0.10765346D-03
 -0.12255966D-03  0.50028390D-04  0.27191894D-04  0.46122598D-04  0.52508948D-04
  0.15099083D-03 -0.63467836D-04 -0.10765346D-03 -0.12255966D-03  0.50028390D-04
 -0.43481749D-04 -0.80215337D-04 -0.12949243D-03 -0.16856066D-03 -0.14383312D-03
 -0.49662120D-04 -0.15407418D-03 -0.71012647D-04  0.19912687D-03 -0.25768567D-03
 -0.19757703D-03 -0.98604783D-04  0.39297370D-03  0.30130731D-03  0.15037347D-03
  0.00000000D+00  0.00000000D+00  0.00000000D+00  0.26323460D-03  0.31913033D-03
  0.80770879D-04  0.00000000D+00 -0.36210549D-03 -0.96097230D-03 -0.59380109D-04
  0.53839360D-03  0.00000000D+00  0.00000000D+00  0.19865419D-04  0.36562976D-04
  0.59165796D-04  0.77775095D-04  0.66707247D-04  0.22808341D-04 -0.50598789D-04
 -0.22577081D-04  0.66670423D-04 -0.26670394D-03 -0.20548101D-03 -0.90217231D-04
  0.21390083D-03  0.16479906D-03  0.72355663D-04  0.00000000D+00  0.00000000D+00
  0.00000000D+00 -0.38460150D-03  0.96386541D-04 -0.13949117D-04  0.00000000D+00
  0.10355213D-03  0.18988518D-03 -0.57275417D-04 -0.32687103D-05  0.00000000D+00
  0.00000000D+00 -0.74331797D+00 -0.13726671D+01 -0.22271198D+01 -0.29570660D+01
 -0.25555707D+01 -0.79952722D+00 -0.17478318D+00 -0.79592784D+00 -0.12402071D+01
  0.23460311D+00  0.15319622D+01  0.61761569D+00 -0.17381141D-01 -0.21944618D-01
 -0.22611402D-01 -0.16386194D-01 -0.71086408D-02 -0.12897832D-02  0.52968468D-01
  0.66875515D-01  0.68907521D-01  0.49936398D-01  0.21663354D-01  0.39305729D-02
  0.00000000D+00  0.00000000D+00  0.00000000D+00  0.00000000D+00  0.00000000D+00
  0.00000000D+00 -0.31830986D-01  0.36112946D-02  0.29334061D-01  0.37346807D-04
 -0.23492518D-03 -0.15439447D-03 -0.87712183D-04  0.55174196D-03  0.36260867D-03
  0.00000000D+00  0.00000000D+00  0.00000000D+00 -0.22024356D-02  0.57222326D-04
 -0.20849049D-03  0.00000000D+00 -0.16543991D-01 -0.16112134D-01 -0.16499067D-01
 -0.39179457D-03  0.00000000D+00  0.00000000D+00
MO    6     MO 0.0        OCC NO =    2.0000000  ORB. ENERGY =   -7.225237
 -0.23072040D-04 -0.42563409D-04 -0.68710539D-04 -0.89440707D-04 -0.76319917D-04
 -0.26351433D-04  0.13648037D-03  0.62903680D-04 -0.17638848D-03 -0.26335945D-04
 -0.20192733D-04 -0.10077589D-04  0.80697894D-04  0.61874027D-04  0.30879476D-04
  0.00000000D+00  0.00000000D+00  0.00000000D+00  0.85660246D-04  0.47981379D-04
 -0.37168516D-03  0.00000000D+00  0.19025491D-04  0.14710988D-04  0.49710366D-04
 -0.66358198D-03  0.00000000D+00  0.00000000D+00 -0.48920486D-04 -0.82978404D-04
 -0.94467980D-04 -0.12646123D-04  0.50992525D-04  0.86492973D-04  0.98469193D-04
  0.12615904D-03 -0.48920486D-04 -0.82978404D-04 -0.94467980D-04 -0.12646123D-04
  0.17509414D-04  0.32301449D-04  0.52144555D-04  0.67876717D-04  0.57919325D-04
  0.19998151D-04 -0.60154881D-03 -0.27725330D-03  0.77744718D-03 -0.28850485D-03
 -0.22120722D-03 -0.11039790D-03  0.27747267D-03  0.21274845D-03  0.10617638D-03
  0.00000000D+00  0.00000000D+00  0.00000000D+00 -0.90750407D-04 -0.39257258D-04
  0.67526702D-03  0.00000000D+00 -0.28988272D-03 -0.21007309D-02  0.33712577D-03
  0.12120951D-02  0.00000000D+00  0.00000000D+00 -0.22514377D-05 -0.41438472D-05
 -0.67055270D-05 -0.88146029D-05 -0.75602337D-05 -0.25849723D-05  0.57856817D-04
  0.25815599D-04 -0.76233810D-04 -0.58139231D-03 -0.44793143D-03 -0.19666603D-03
  0.71248665D-03  0.54893255D-03  0.24101096D-03  0.00000000D+00  0.00000000D+00
  0.00000000D+00 -0.23328406D-03  0.27075988D-03 -0.36618960D-03  0.00000000D+00
 -0.81865629D-04  0.33727779D-03 -0.19062927D-03  0.63027065D-04  0.00000000D+00
  0.00000000D+00  0.33859680D-02  0.62527842D-02  0.10144994D-01  0.13470051D-01
  0.11641156D-01  0.36420128D-02  0.80960456D-03  0.36867781D-02  0.57447023D-02
 -0.10866935D-02 -0.70961266D-02 -0.28608272D-02 -0.34232029D+01 -0.43219762D+01
 -0.44532990D+01 -0.32272488D+01 -0.14000416D+01 -0.25402186D+00  0.12586958D+02
  0.15891706D+02  0.16374573D+02  0.11866444D+02  0.51478877D+01  0.93402655D+00
  0.00000000D+00  0.00000000D+00  0.00000000D+00  0.00000000D+00  0.00000000D+00
  0.00000000D+00 -0.69003718D-05  0.78286219D-06  0.63590845D-05  0.69731275D-03
 -0.43863542D-02 -0.28827427D-02 -0.25373271D-02  0.15960723D-01  0.10489499D-01
  0.00000000D+00  0.00000000D+00  0.00000000D+00  0.22737094D-03  0.26382981D-03
 -0.89368864D-03  0.00000000D+00 -0.35907200D-04  0.12540513D-02 -0.78759737D-04
 -0.78554057D-03  0.00000000D+00  0.00000000D+00
MO    7     MO 0.0        OCC NO =    2.0000000  ORB. ENERGY =   -7.217434
  0.00000000D+00  0.00000000D+00  0.00000000D+00  0.00000000D+00  0.00000000D+00
  0.00000000D+00  0.00000000D+00  0.00000000D+00  0.00000000D+00  0.00000000D+00
  0.00000000D+00  0.00000000D+00  0.00000000D+00  0.00000000D+00  0.00000000D+00
  0.73164787D-04  0.56098118D-04  0.27996892D-04  0.00000000D+00  0.00000000D+00
  0.00000000D+00 -0.11237901D-03  0.00000000D+00  0.00000000D+00  0.00000000D+00
  0.00000000D+00 -0.39344880D-04 -0.94771162D-04 -0.28156237D-04 -0.47758307D-04
 -0.54371144D-04  0.15858160D-03  0.00000000D+00  0.00000000D+00  0.00000000D+00
  0.00000000D+00  0.28156237D-04  0.47758307D-04  0.54371144D-04 -0.15858160D-03
  0.00000000D+00  0.00000000D+00  0.00000000D+00  0.00000000D+00  0.00000000D+00
  0.00000000D+00  0.00000000D+00  0.00000000D+00  0.00000000D+00  0.00000000D+00
  0.00000000D+00  0.00000000D+00  0.00000000D+00  0.00000000D+00  0.00000000D+00
 -0.25383880D-03 -0.19462749D-03 -0.97132758D-04  0.00000000D+00  0.00000000D+00
  0.00000000D+00  0.16860734D-03  0.00000000D+00  0.00000000D+00  0.00000000D+00
  0.00000000D+00 -0.11571777D-03  0.50503528D-03  0.00000000D+00  0.00000000D+00
  0.00000000D+00  0.00000000D+00  0.00000000D+00  0.00000000D+00  0.00000000D+00
  0.00000000D+00  0.00000000D+00  0.00000000D+00  0.00000000D+00  0.00000000D+00
  0.00000000D+00  0.00000000D+00  0.00000000D+00 -0.10660110D-03 -0.82130401D-04
 -0.36059670D-04  0.00000000D+00  0.00000000D+00  0.00000000D+00 -0.25076702D-04
  0.00000000D+00  0.00000000D+00  0.00000000D+00  0.00000000D+00  0.19270492D-03
 -0.86187375D-04  0.00000000D+00  0.00000000D+00  0.00000000D+00  0.00000000D+00
  0.00000000D+00  0.00000000D+00  0.00000000D+00  0.00000000D+00  0.00000000D+00
  0.00000000D+00  0.00000000D+00  0.00000000D+00  0.00000000D+00  0.00000000D+00
  0.00000000D+00  0.00000000D+00  0.00000000D+00  0.00000000D+00  0.00000000D+00
  0.00000000D+00  0.00000000D+00  0.00000000D+00  0.00000000D+00  0.00000000D+00
  0.13051192D+02  0.16477826D+02  0.16978503D+02  0.12304104D+02  0.53377529D+01
  0.96847546D+00  0.00000000D+00  0.00000000D+00  0.00000000D+00  0.00000000D+00
  0.00000000D+00  0.00000000D+00  0.00000000D+00  0.00000000D+00  0.00000000D+00
 -0.24603837D-02  0.15476720D-01  0.10171409D-01  0.00000000D+00  0.00000000D+00
  0.00000000D+00 -0.99716717D-03  0.00000000D+00  0.00000000D+00  0.00000000D+00
  0.00000000D+00 -0.13919564D-03  0.36403220D-03
MO    8     MO 0.0        OCC NO =    2.0000000  ORB. ENERGY =   -7.216231
  0.46947722D-04  0.86609380D-04  0.13981439D-03  0.18199680D-03  0.15529820D-03
  0.53620735D-04 -0.21108430D-03 -0.97288560D-04  0.27280728D-03  0.58199561D-06
  0.44623732D-06  0.22270370D-06 -0.18180564D-03 -0.13939704D-03 -0.69568890D-04
  0.00000000D+00  0.00000000D+00  0.00000000D+00 -0.64420628D-03 -0.33885193D-03
  0.29203379D-03  0.00000000D+00  0.24367919D-04  0.43030974D-04  0.66289440D-04
  0.34074804D-03  0.00000000D+00  0.00000000D+00  0.85537111D-04  0.14508713D-03
  0.16517657D-03 -0.74397640D-04 -0.12726517D-04 -0.21586582D-04 -0.24575560D-04
 -0.14133362D-03  0.85537111D-04  0.14508713D-03  0.16517657D-03 -0.74397640D-04
 -0.61737984D-04 -0.11389453D-03 -0.18386108D-03 -0.23933250D-03 -0.20422285D-03
 -0.70513243D-04  0.19253595D-03  0.88739642D-04 -0.24883522D-03 -0.12176823D-03
 -0.93364156D-04 -0.46595257D-04 -0.75861205D-04 -0.58165560D-04 -0.29028691D-04
  0.00000000D+00  0.00000000D+00  0.00000000D+00  0.16637093D-03 -0.62033981D-03
 -0.94664498D-04  0.00000000D+00 -0.34784949D-03 -0.10044557D-04 -0.20359940D-03
  0.42967961D-03  0.00000000D+00  0.00000000D+00 -0.18484544D-03 -0.34021428D-03
 -0.55053093D-03 -0.72368831D-03 -0.62070326D-03 -0.21222899D-03  0.61677050D-03
  0.27520180D-03 -0.81267459D-03 -0.17792525D-03 -0.13708181D-03 -0.60186299D-04
  0.63020041D-03  0.48553544D-03  0.21317621D-03  0.00000000D+00  0.00000000D+00
  0.00000000D+00  0.13727881D-02 -0.77860363D-05 -0.50855316D-03  0.00000000D+00
 -0.92271448D-03 -0.29351625D-03 -0.83030164D-03  0.49727294D-04  0.00000000D+00
  0.00000000D+00 -0.20775821D-03 -0.38366199D-03 -0.62248248D-03 -0.82650326D-03
 -0.71428488D-03 -0.22346875D-03 -0.37404705D-04 -0.17033358D-03 -0.26541216D-03
  0.50206548D-04  0.32784958D-03  0.13217366D-03  0.12593399D+02  0.15899837D+02
  0.16382952D+02  0.11872516D+02  0.51505219D+01  0.93450449D+00  0.34254343D+01
  0.43247935D+01  0.44562019D+01  0.32293524D+01  0.14009542D+01  0.25418744D+00
  0.00000000D+00  0.00000000D+00  0.00000000D+00  0.00000000D+00  0.00000000D+00
  0.00000000D+00  0.10203959D-03 -0.11576613D-04 -0.94035275D-04 -0.23877164D-02
  0.15019617D-01  0.98709969D-02 -0.63847868D-03  0.40162663D-02  0.26395183D-02
  0.00000000D+00  0.00000000D+00  0.00000000D+00  0.14448078D-03 -0.94466979D-03
 -0.18263280D-03  0.00000000D+00 -0.30068005D-03  0.16132230D-03 -0.12873568D-03
  0.61207884D-03  0.00000000D+00  0.00000000D+00
MO    9     MO 0.0        OCC NO =    2.0000000  ORB. ENERGY =   -1.101211
 -0.82982243D-02 -0.15308603D-01 -0.24712833D-01 -0.32168765D-01 -0.27449666D-01
 -0.94777099D-02 -0.11352757D-01 -0.52324753D-02  0.14672407D-01  0.31611796D-01
  0.24237920D-01  0.12096421D-01  0.31081272D-02  0.23831148D-02  0.11893413D-02
  0.00000000D+00  0.00000000D+00  0.00000000D+00  0.20681896D-03 -0.30154014D-03
  0.22046882D-02  0.00000000D+00  0.81981750D-02 -0.85991138D-03 -0.13386297D-02
  0.24373132D-02  0.00000000D+00  0.00000000D+00  0.10899704D-02  0.18487961D-02
  0.21047891D-02  0.17245491D-03  0.13512665D-02  0.22920037D-02  0.26093652D-02
 -0.62294879D-03  0.10899704D-02  0.18487961D-02  0.21047891D-02  0.17245491D-03
 -0.65890342D-01 -0.12155482D+00 -0.19622716D+00 -0.25542946D+00 -0.21795842D+00
 -0.75255805D-01 -0.96055243D-01 -0.44271774D-01  0.12414268D+00  0.18085990D+00
  0.13867190D+00  0.69206997D-01  0.17298858D+00  0.13263667D+00  0.66194994D-01
  0.00000000D+00  0.00000000D+00  0.00000000D+00  0.15757702D-01 -0.42285082D-02
 -0.52248147D-02  0.00000000D+00  0.22158498D-02  0.26148891D-02 -0.24369292D-01
  0.46915734D-01  0.00000000D+00  0.00000000D+00 -0.16100074D+00 -0.29632732D+00
 -0.47951353D+00 -0.63033396D+00 -0.54063378D+00 -0.18485187D+00 -0.26033667D+00
 -0.11616171D+00  0.34302710D+00 -0.37852635D+00 -0.29163415D+00 -0.12804310D+00
 -0.37323747D+00 -0.28755935D+00 -0.12625404D+00  0.00000000D+00  0.00000000D+00
  0.00000000D+00  0.10269030D+00 -0.11001706D-01 -0.10175912D-01  0.00000000D+00
  0.77110127D-04  0.19774630D-03 -0.78526370D-02  0.23556017D-01  0.00000000D+00
  0.00000000D+00  0.16319993D-01  0.30137732D-01  0.48897755D-01  0.64924163D-01
  0.56109093D-01  0.17554101D-01  0.48073083D-02  0.21891525D-01  0.34111165D-01
 -0.64526201D-02 -0.42135716D-01 -0.16987155D-01  0.10239467D-01  0.12927873D-01
  0.13320685D-01  0.96533298D-02  0.41877971D-02  0.75982885D-03 -0.15761360D+00
 -0.19899558D+00 -0.20504204D+00 -0.14859134D+00 -0.64461734D-01 -0.11695859D-01
  0.00000000D+00  0.00000000D+00  0.00000000D+00  0.00000000D+00  0.00000000D+00
  0.00000000D+00 -0.21794153D-01  0.24725940D-02  0.20084550D-01  0.11735160D-03
 -0.73818483D-03 -0.48514023D-03 -0.22955932D-02  0.14440127D-01  0.94901525D-02
  0.00000000D+00  0.00000000D+00  0.00000000D+00  0.16424704D-03  0.91080883D-03
 -0.58876000D-03  0.00000000D+00 -0.29425796D-02  0.10015348D-01 -0.26537130D-02
 -0.48091947D-03  0.00000000D+00  0.00000000D+00
MO   10     MO 0.0        OCC NO =    2.0000000  ORB. ENERGY =   -0.847791
 -0.32577085D-01 -0.60098361D-01 -0.97017390D-01 -0.12628781D+00 -0.10776162D+00
 -0.37207498D-01 -0.45959865D-01 -0.21182860D-01  0.59398950D-01  0.42968809D-01
  0.32945757D-01  0.16442242D-01 -0.30241856D-01 -0.23187537D-01 -0.11572206D-01
  0.00000000D+00  0.00000000D+00  0.00000000D+00  0.17189667D-01  0.26359792D-03
 -0.47178153D-03  0.00000000D+00  0.15014607D-02 -0.49548988D-03 -0.11239832D-02
 -0.40667720D-02  0.00000000D+00  0.00000000D+00  0.76382802D-02  0.12955969D-01
  0.14749913D-01  0.59548795D-03  0.53532300D-02  0.90800913D-02  0.10337363D-01
  0.40032068D-03  0.76382802D-02  0.12955969D-01  0.14749913D-01  0.59548795D-03
 -0.33542330D-01 -0.61879050D-01 -0.99891973D-01 -0.13002967D+00 -0.11095455D+00
 -0.38309940D-01 -0.49970958D-01 -0.23031569D-01  0.64582923D-01 -0.91293907D-01
 -0.69998377D-01 -0.34934096D-01 -0.19119698D+00 -0.14659772D+00 -0.73162536D-01
  0.00000000D+00  0.00000000D+00  0.00000000D+00  0.21001435D-01 -0.22166900D-02
 -0.75616130D-02  0.00000000D+00 -0.16399807D-02  0.95787838D-02 -0.61246615D-02
 -0.25564631D-01  0.00000000D+00  0.00000000D+00  0.43199655D-01  0.79510426D-01
  0.12866288D+00  0.16913095D+00  0.14506264D+00  0.49599379D-01  0.73942036D-01
  0.32992793D-01 -0.97428158D-01  0.53421867D-01  0.41158669D-01  0.18070872D-01
 -0.10618730D-01 -0.81811593D-02 -0.35919696D-02  0.00000000D+00  0.00000000D+00
  0.00000000D+00 -0.28961434D-01 -0.54215823D-03 -0.12454493D-02  0.00000000D+00
 -0.46373819D-03  0.26443488D-02 -0.52167163D-03  0.51114565D-03  0.00000000D+00
  0.00000000D+00  0.18530241D+00  0.34219342D+00  0.55520070D+00  0.73716965D+00
  0.63708053D+00  0.19931486D+00  0.54590562D-01  0.24859456D+00  0.38735766D+00
 -0.73274302D-01 -0.47848240D+00 -0.19290178D+00  0.19660017D+00  0.24821820D+00
  0.25576029D+00  0.18534620D+00  0.80406689D-01  0.14588893D-01 -0.49586210D+00
 -0.62605235D+00 -0.64507488D+00 -0.46747751D+00 -0.20280059D+00 -0.36795894D-01
  0.00000000D+00  0.00000000D+00  0.00000000D+00  0.00000000D+00  0.00000000D+00
  0.00000000D+00 -0.27275306D+00  0.30944428D-01  0.25135744D+00  0.30497218D-02
 -0.19183874D-01 -0.12607776D-01 -0.78289733D-02  0.49247128D-01  0.32365556D-01
  0.00000000D+00  0.00000000D+00  0.00000000D+00  0.37814222D-01 -0.67397143D-03
  0.30542832D-03  0.00000000D+00 -0.11599929D-01  0.17879268D-01 -0.14326134D-01
 -0.22968556D-01  0.00000000D+00  0.00000000D+00
MO   11     MO 0.0        OCC NO =    2.0000000  ORB. ENERGY =   -0.769508
 -0.94268847D-01 -0.17390762D+00 -0.28074082D+00 -0.36544113D+00 -0.31183157D+00
 -0.10766795D+00 -0.13574488D+00 -0.62564689D-01  0.17543792D+00  0.45662459D-01
  0.35011077D-01  0.17472981D-01 -0.50480101D-02 -0.38704939D-02 -0.19316477D-02
  0.00000000D+00  0.00000000D+00  0.00000000D+00  0.59345615D-01  0.65648572D-03
 -0.82203315D-04  0.00000000D+00 -0.12575781D-02  0.49797702D-03  0.61907885D-03
  0.16960809D-02  0.00000000D+00  0.00000000D+00  0.23442725D-01  0.39763299D-01