 CH3NH2
GAUSSIAN              9 MOL ORBITALS     91 PRIMITIVES        7 NUCLEI
  C    1    (CENTRE  1)   0.09740215  1.32997036  0.00000000  CHARGE =  6.0
  H    2    (CENTRE  2)   1.12128979  2.01173819  1.66375268  CHARGE =  1.0
  H    3    (CENTRE  3)   1.12128979  2.01173819 -1.66375268  CHARGE =  1.0
  H    4    (CENTRE  4)  -1.77992360  2.23799888  0.00000000  CHARGE =  1.0
  N    5    (CENTRE  5)   0.09740215 -1.43840473  0.00000000  CHARGE =  7.0
  H    6    (CENTRE  6)  -0.86444577 -2.08623308  1.53338048  CHARGE =  1.0
  H    7    (CENTRE  7)  -0.86444577 -2.08623308 -1.53338048  CHARGE =  1.0
CENTRE ASSIGNMENTS    1  1  1  1  1  1  1  1  1  1  1  1  1  1  1  1  1  1  1  1
CENTRE ASSIGNMENTS    1  1  1  1  1  1  1  1  2  2  2  2  2  2  2  3  3  3  3  3
CENTRE ASSIGNMENTS    3  3  4  4  4  4  4  4  4  5  5  5  5  5  5  5  5  5  5  5
CENTRE ASSIGNMENTS    5  5  5  5  5  5  5  5  5  5  5  5  5  5  5  5  5  6  6  6
CENTRE ASSIGNMENTS    6  6  6  6  7  7  7  7  7  7  7
TYPE ASSIGNMENTS      1  1  1  1  1  1  1  1  1  2  2  2  3  3  3  4  4  4  1  2
TYPE ASSIGNMENTS      3  4  5  6  7  8  9 10  1  1  1  1  2  3  4  1  1  1  1  2
TYPE ASSIGNMENTS      3  4  1  1  1  1  2  3  4  1  1  1  1  1  1  1  1  1  2  2
TYPE ASSIGNMENTS      2  3  3  3  4  4  4  1  2  3  4  5  6  7  8  9 10  1  1  1
TYPE ASSIGNMENTS      1  2  3  4  1  1  1  1  2  3  4
EXPONENTS  0.3047525D+04 0.4573695D+03 0.1039487D+03 0.2921016D+02 0.9286663D+01
EXPONENTS  0.3163927D+01 0.7868272D+01 0.1881289D+01 0.5442493D+00 0.7868272D+01
EXPONENTS  0.1881289D+01 0.5442493D+00 0.7868272D+01 0.1881289D+01 0.5442493D+00
EXPONENTS  0.7868272D+01 0.1881289D+01 0.5442493D+00 0.1687145D+00 0.1687145D+00
EXPONENTS  0.1687145D+00 0.1687145D+00 0.8000000D+00 0.8000000D+00 0.8000000D+00
EXPONENTS  0.8000000D+00 0.8000000D+00 0.8000000D+00 0.1873114D+02 0.2825394D+01
EXPONENTS  0.6401217D+00 0.1612778D+00 0.1100000D+01 0.1100000D+01 0.1100000D+01
EXPONENTS  0.1873114D+02 0.2825394D+01 0.6401217D+00 0.1612778D+00 0.1100000D+01
EXPONENTS  0.1100000D+01 0.1100000D+01 0.1873114D+02 0.2825394D+01 0.6401217D+00
EXPONENTS  0.1612778D+00 0.1100000D+01 0.1100000D+01 0.1100000D+01 0.4173511D+04
EXPONENTS  0.6274579D+03 0.1429021D+03 0.4023433D+02 0.1282021D+02 0.4390437D+01
EXPONENTS  0.1162636D+02 0.2716280D+01 0.7722184D+00 0.1162636D+02 0.2716280D+01
EXPONENTS  0.7722184D+00 0.1162636D+02 0.2716280D+01 0.7722184D+00 0.1162636D+02
EXPONENTS  0.2716280D+01 0.7722184D+00 0.2120315D+00 0.2120315D+00 0.2120315D+00
EXPONENTS  0.2120315D+00 0.8000000D+00 0.8000000D+00 0.8000000D+00 0.8000000D+00
EXPONENTS  0.8000000D+00 0.8000000D+00 0.1873114D+02 0.2825394D+01 0.6401217D+00
EXPONENTS  0.1612778D+00 0.1100000D+01 0.1100000D+01 0.1100000D+01 0.1873114D+02
EXPONENTS  0.2825394D+01 0.6401217D+00 0.1612778D+00 0.1100000D+01 0.1100000D+01
EXPONENTS  0.1100000D+01
MO    1     MO 0.0        OCC NO =    2.0000000  ORB. ENERGY =  -14.308330
 -0.89431530D-06 -0.16498371D-05 -0.26633486D-05 -0.34668886D-05 -0.29583023D-05
 -0.10214307D-05 -0.44502112D-04 -0.20510983D-04  0.57514937D-04  0.43942666D-04
  0.33692449D-04  0.16814893D-04 -0.33855060D-03 -0.25957913D-03 -0.12954818D-03
  0.43992662D-15  0.33730783D-15  0.16834025D-15  0.82619057D-05 -0.37907153D-04
  0.13837462D-04  0.10092304D-15  0.22446159D-04  0.10126745D-03  0.23253901D-05
 -0.37011845D-04  0.23148073D-15  0.33731444D-15 -0.39638270D-05 -0.67234009D-05
 -0.76543543D-05 -0.52989617D-05  0.42362885D-04  0.90503736D-04  0.20854601D-04
 -0.39638270D-05 -0.67234009D-05 -0.76543543D-05 -0.52989617D-05  0.42362885D-04
  0.90503736D-04 -0.20854601D-04 -0.16710671D-04 -0.28344461D-04 -0.32269168D-04
 -0.25205528D-04 -0.44492904D-04  0.68256659D-04 -0.60285072D-15  0.67406981D+00
  0.12413559D+01  0.20056929D+01  0.26250208D+01  0.22485656D+01  0.77353262D+00
 -0.17867923D-01 -0.88330226D-02  0.23300948D-01 -0.26542601D-02 -0.20663839D-02
 -0.98119216D-03  0.73600801D-03  0.57299399D-03  0.27207781D-03  0.53677780D-15
  0.41789009D-15  0.19842900D-15  0.80665925D-03  0.73686857D-04 -0.65451235D-04
  0.25270675D-15 -0.89788640D-02 -0.91405087D-02 -0.88363938D-02  0.18496374D-03
 -0.44212283D-15 -0.23843946D-15  0.33064085D-04  0.56082946D-04  0.63848452D-04
 -0.81488855D-04 -0.15038678D-03 -0.13552329D-03  0.29032032D-03  0.33064085D-04
  0.56082946D-04  0.63848452D-04 -0.81488855D-04 -0.15038678D-03 -0.13552329D-03
 -0.29032032D-03
MO    2     MO 0.0        OCC NO =    2.0000000  ORB. ENERGY =  -10.198458
  0.53255280D+00  0.98245592D+00  0.15859885D+01  0.20644858D+01  0.17616294D+01
  0.60824831D+00 -0.19658731D-01 -0.90606911D-02  0.25407123D-01  0.22820968D-04
  0.17497671D-04  0.87325640D-05 -0.22779519D-03 -0.17465891D-03 -0.87167035D-04
  0.22125239D-15  0.16964230D-15  0.84663398D-16 -0.28476334D-02 -0.38514958D-04
  0.38378172D-04  0.39924478D-15 -0.99899946D-02 -0.10043771D-01 -0.99756127D-02
 -0.51899911D-05  0.11108410D-14  0.79182731D-15 -0.27045749D-04 -0.45874710D-04
 -0.52226735D-04  0.49353201D-03  0.13714341D-03  0.53373195D-04  0.17741033D-03
 -0.27045749D-04 -0.45874710D-04 -0.52226735D-04  0.49353201D-03  0.13714341D-03
  0.53373195D-04 -0.17741033D-03 -0.33240278D-04 -0.56381804D-04 -0.64188691D-04
  0.46030542D-03 -0.23272329D-03  0.58028765D-04 -0.26507778D-15 -0.94664859D-04
 -0.17433325D-03 -0.28167503D-03 -0.36865207D-03 -0.31578353D-03 -0.10863319D-03
  0.84252395D-04  0.41650242D-04 -0.10987067D-03  0.43305398D-04  0.33713944D-04
  0.16008573D-04 -0.43243060D-03 -0.33665413D-03 -0.15985529D-03  0.84640710D-15
  0.65894144D-15  0.31288871D-15  0.62352002D-03  0.37161298D-04  0.24975830D-03
 -0.13733589D-15 -0.16543078D-03 -0.66408137D-03 -0.25499951D-03 -0.26466738D-04
 -0.18731758D-14 -0.40906692D-15 -0.40899299D-05 -0.69372952D-05 -0.78978654D-05
  0.64923648D-04  0.65142192D-04  0.18154964D-03 -0.11574718D-03 -0.40899299D-05
 -0.69372952D-05 -0.78978654D-05  0.64923648D-04  0.65142192D-04  0.18154964D-03
  0.11574718D-03
MO    3     MO 0.0        OCC NO =    2.0000000  ORB. ENERGY =   -0.867938
 -0.52525288D-01 -0.96898899D-01 -0.15642487D+00 -0.20361870D+00 -0.17374821D+00
 -0.59991080D-01 -0.75200292D-01 -0.34659746D-01  0.97189546D-01 -0.73001712D-02
 -0.55973082D-02 -0.27934491D-02 -0.12760817D+00 -0.97841853D-01 -0.48829942D-01
  0.75788290D-15  0.58109654D-15  0.29000790D-15  0.18803935D-01 -0.74265448D-03
  0.22716703D-03  0.16063482D-15 -0.12004965D-01  0.15439842D-01 -0.10579586D-01
  0.38738691D-02  0.68440849D-15  0.55235173D-15  0.94461151D-02  0.16022399D-01
  0.18240935D-01  0.15633757D-02 -0.41379084D-02 -0.43723802D-02 -0.68734892D-02
  0.94461151D-02  0.16022399D-01  0.18240935D-01  0.15633757D-02 -0.41379084D-02
 -0.43723802D-02  0.68734892D-02  0.91512352D-02  0.15522227D-01  0.17671507D-01
  0.80493367D-03  0.75988940D-02 -0.51975628D-02  0.32074602D-15 -0.12569951D+00
 -0.23148615D+00 -0.37401855D+00 -0.48950987D+00 -0.41930908D+00 -0.14424718D+00
 -0.19716652D+00 -0.97469437D-01  0.25711813D+00 -0.16601670D+00 -0.12924665D+00
 -0.61370882D-01  0.11146153D+00  0.86774577D-01  0.41203639D-01 -0.34583144D-14
 -0.26923530D-14 -0.12784244D-14  0.85245571D-01 -0.72695686D-02  0.63257532D-02
  0.50169995D-15 -0.13233200D-01  0.49857624D-03 -0.88702845D-02  0.20254622D-02
 -0.94207677D-16 -0.46844235D-15  0.27369618D-01  0.46424053D-01  0.52852143D-01
  0.27906633D-02  0.10860574D-01  0.10401039D-01 -0.22263106D-01  0.27369618D-01
  0.46424053D-01  0.52852143D-01  0.27906633D-02  0.10860574D-01  0.10401039D-01
  0.22263106D-01
MO    4     MO 0.0        OCC NO =    2.0000000  ORB. ENERGY =   -0.654178
 -0.91752429D-01 -0.16926531D+00 -0.27324670D+00 -0.35568602D+00 -0.30350752D+00
 -0.10479385D+00 -0.13724486D+00 -0.63256029D-01  0.17737651D+00  0.25666148D-01
  0.19679174D-01  0.98212871D-02  0.11122142D+00  0.85277531D-01  0.42559465D-01
  0.11701817D-14  0.89722109D-15  0.44777621D-15  0.59942329D-01 -0.68452042D-03
  0.41262714D-02  0.12126737D-14 -0.66067863D-02 -0.18163722D-01 -0.53429705D-02
 -0.40830746D-02  0.41640152D-15  0.59309904D-15  0.30122965D-01  0.51094251D-01
  0.58168998D-01  0.95715953D-02 -0.93110575D-02 -0.41748972D-02 -0.15947922D-01
  0.30122965D-01  0.51094251D-01  0.58168998D-01  0.95715953D-02 -0.93110575D-02
 -0.41748972D-02  0.15947922D-01  0.28165003D-01  0.47773176D-01  0.54388073D-01
  0.78583732D-02  0.17119302D-01 -0.57683371D-02 -0.85527205D-16  0.52073719D-01
  0.95898104D-01  0.15494521D+00  0.20278997D+00  0.17370779D+00  0.59757491D-01
  0.84919607D-01  0.41980079D-01 -0.11074076D+00  0.17799777D+00  0.13857411D+00
  0.65799887D-01  0.31401632D+00  0.24446672D+00  0.11608145D+00  0.21004863D-15
  0.16352621D-15  0.77648029D-16 -0.44751947D-01  0.79242827D-02  0.11274318D-01
 -0.13382975D-14 -0.13096743D-02  0.20654961D-01 -0.22422998D-02 -0.11575029D-01
  0.11010112D-14  0.97441978D-15 -0.22685516D-01 -0.38478928D-01 -0.43806900D-01
 -0.64718209D-02 -0.58689055D-02 -0.73713609D-03  0.15077967D-01 -0.22685516D-01
 -0.38478928D-01 -0.43806900D-01 -0.64718209D-02 -0.58689055D-02 -0.73713609D-03
 -0.15077967D-01
MO    5     MO 0.0        OCC NO =    2.0000000  ORB. ENERGY =   -0.481479
 -0.35208089D-15 -0.64952049D-15 -0.10485275D-14 -0.13648712D-14 -0.11646471D-14
 -0.40212464D-15  0.22688711D-14  0.10457206D-14 -0.29323097D-14 -0.18531325D-14
 -0.14208645D-14 -0.70911095D-15  0.76003054D-16  0.58274321D-16  0.29082970D-16
  0.30297019D+00  0.23229832D+00  0.11593314D+00  0.46878850D-14  0.77226052D-15
  0.90711002D-15  0.17036466D-01 -0.61782019D-15 -0.90901284D-15 -0.59975377D-15
  0.12079820D-15  0.14110088D-01 -0.16015116D-01  0.21636140D-01  0.36698989D-01
  0.41780502D-01  0.11284823D-01 -0.47946682D-02 -0.35312290D-02 -0.12828926D-02
 -0.21636140D-01 -0.36698989D-01 -0.41780502D-01 -0.11284823D-01  0.47946682D-02
  0.35312290D-02 -0.12828926D-02  0.30837080D-15  0.52305524D-15  0.59547990D-15
 -0.65045620D-15 -0.44958959D-16  0.12989449D-15  0.55505245D-02  0.64623310D-15
  0.11900923D-14  0.19228649D-14  0.25166167D-14  0.21557078D-14  0.74158845D-15
  0.38049372D-15  0.18809739D-15 -0.49618887D-15 -0.46371516D-14 -0.36100966D-14
 -0.17142016D-14 -0.34443006D-14 -0.26814430D-14 -0.12732440D-14  0.85401470D+00
  0.66486408D+00  0.31570099D+00 -0.25045496D-14  0.72067003D-16  0.22674916D-15
  0.38625787D-01  0.68257517D-15  0.52279353D-15  0.73755731D-15 -0.52260996D-15
 -0.46904695D-01  0.64342494D-02  0.43255799D-01  0.73370022D-01  0.83529176D-01
  0.24702164D-01  0.12117269D-01  0.10544138D-01 -0.36023898D-02 -0.43255799D-01
 -0.73370022D-01 -0.83529176D-01 -0.24702164D-01 -0.12117269D-01 -0.10544138D-01
 -0.36023898D-02
MO    6     MO 0.0        OCC NO =    2.0000000  ORB. ENERGY =   -0.433278
 -0.29431238D-02 -0.54294888D-02 -0.87648783D-02 -0.11409267D-01 -0.97355485D-02
 -0.33614509D-02 -0.25822811D-02 -0.11901710D-02  0.33373638D-02 -0.33105612D+00
 -0.25383283D+00 -0.12668037D+00  0.38900879D+00  0.29826727D+00  0.14885627D+00
 -0.48085746D-14 -0.36869100D-14 -0.18400265D-14  0.86421001D-03 -0.14603916D-01
  0.17742823D-01 -0.23324081D-15  0.18572024D-01 -0.19509955D-01  0.45275960D-03
 -0.40006670D-02 -0.26788666D-15 -0.37332281D-15 -0.17841499D-02 -0.30262559D-02
 -0.34452853D-02 -0.16283390D-02 -0.73755604D-02  0.79775801D-02  0.96738489D-03
 -0.17841499D-02 -0.30262559D-02 -0.34452853D-02 -0.16283390D-02 -0.73755604D-02
  0.79775801D-02 -0.96738489D-03  0.46907757D-01  0.79564435D-01  0.90581297D-01
  0.34209974D-01  0.11434814D-01 -0.28718958D-02  0.11019566D-15  0.19790606D-01
  0.36446055D-01  0.58886896D-01  0.77070288D-01  0.66017609D-01  0.22710822D-01
  0.36370291D-01  0.17979684D-01 -0.47429254D-01 -0.43494889D+00 -0.33861466D+00
 -0.16078622D+00 -0.59696172D+00 -0.46474423D+00 -0.22067700D+00 -0.25855104D-14
 -0.20128611D-14 -0.95577766D-15 -0.21014052D-01 -0.24071677D-01 -0.26111858D-01
 -0.11781333D-14  0.15774509D-01 -0.14507391D-01  0.49590248D-02  0.40753126D-02
  0.75373883D-15 -0.16354177D-15  0.20989444D-01  0.35602069D-01  0.40531697D-01
  0.14273974D-01 -0.35633081D-02 -0.72942416D-02 -0.10518526D-01  0.20989444D-01
  0.35602069D-01  0.40531697D-01  0.14273974D-01 -0.35633081D-02 -0.72942416D-02
  0.10518526D-01
MO    7     MO 0.0        OCC NO =    2.0000000  ORB. ENERGY =   -0.394968
  0.46395191D-02  0.85590067D-02  0.13816891D-01  0.17985486D-01  0.15347048D-01
  0.52989669D-02  0.73407910D-02  0.33833639D-02 -0.94873055D-02  0.44826772D+00
  0.34370325D+00  0.17153201D+00  0.31671364D+00  0.24283593D+00  0.12119215D+00
 -0.29299942D-14 -0.22465337D-14 -0.11211778D-14 -0.60094505D-02  0.24423151D-01
  0.16384558D-01  0.21211965D-14 -0.15038638D-02 -0.16668064D-01  0.22791987D-01
  0.16969728D-01  0.61706520D-15 -0.87145779D-16  0.33384308D-01  0.56626105D-01
  0.64466819D-01  0.24896635D-01  0.33562340D-02  0.12054135D-02 -0.10475225D-01
  0.33384308D-01  0.56626105D-01  0.64466819D-01  0.24896635D-01  0.33562340D-02
  0.12054135D-02  0.10475225D-01 -0.30670001D-01 -0.52022127D-01 -0.59225353D-01
 -0.23127260D-01 -0.10571895D-02  0.11313149D-01 -0.27308577D-15 -0.47147638D-02
 -0.86826315D-02 -0.14028767D-01 -0.18360640D-01 -0.15727534D-01 -0.54104539D-02
 -0.54330758D-02 -0.26858456D-02  0.70850885D-02  0.87655457D-01  0.68241173D-01
  0.32403323D-01 -0.63023217D+00 -0.49064581D+00 -0.23297598D+00  0.11712897D-14
  0.91186772D-15  0.43298705D-15  0.54838543D-02  0.70013896D-02 -0.32916381D-01
 -0.32831539D-15  0.23338039D-03 -0.10506036D-01  0.98387056D-02  0.40678302D-01
 -0.82962878D-15 -0.12954457D-14  0.14485733D-01  0.24570545D-01  0.27972697D-01
  0.10929779D-01  0.52610814D-02 -0.12179017D-01 -0.53711805D-02  0.14485733D-01
  0.24570545D-01  0.27972697D-01  0.10929779D-01  0.52610814D-02 -0.12179017D-01
  0.53711805D-02
MO    8     MO 0.0        OCC NO =    2.0000000  ORB. ENERGY =   -0.362177
 -0.88047513D-15 -0.16243047D-14 -0.26221314D-14 -0.34132360D-14 -0.29125205D-14
 -0.10056233D-14  0.40226150D-14  0.18540196D-14 -0.51988644D-14 -0.11918395D-14
 -0.91382696D-15 -0.45606370D-15  0.62547734D-14  0.47957635D-14  0.23934221D-14
  0.50493561D+00  0.38715260D+00  0.19321628D+00  0.96096355D-14  0.25176507D-14
  0.97614540D-15  0.26308552D-01 -0.15503709D-14 -0.79178116D-15 -0.51591189D-15
  0.26229093D-15  0.35989487D-01  0.38827104D-01  0.47430935D-01  0.80451843D-01
  0.91591580D-01  0.38474543D-01 -0.99332449D-02 -0.51978822D-02 -0.22134389D-02
 -0.47430935D-01 -0.80451843D-01 -0.91591580D-01 -0.38474543D-01  0.99332449D-02
  0.51978822D-02 -0.22134389D-02  0.36838116D-15  0.62484416D-15  0.71136299D-15
  0.15820622D-15  0.28339200D-15 -0.62064958D-15  0.12488898D-01 -0.29946741D-15
 -0.55149426D-15 -0.89106447D-15 -0.11662118D-14 -0.99896496D-15 -0.34365552D-15
  0.53776033D-15  0.26584227D-15 -0.70127488D-15  0.97001119D-15  0.75516921D-15
  0.35858105D-15 -0.85903923D-14 -0.66877576D-14 -0.31755839D-14 -0.51076428D+00
 -0.39763815D+00 -0.18881266D+00  0.69779497D-15 -0.71085510D-15 -0.15980556D-14
 -0.26510126D-01 -0.10751188D-14 -0.12324638D-14 -0.13245531D-14  0.15137138D-15
  0.37166439D-01  0.27724660D-01 -0.31406237D-01 -0.53270923D-01 -0.60647063D-01
 -0.23307731D-01 -0.63043999D-02 -0.29547657D-02  0.12757852D-02  0.31406237D-01
  0.53270923D-01  0.60647063D-01  0.23307731D-01  0.63043999D-02  0.29547657D-02
  0.12757852D-02
MO    9     MO 0.0        OCC NO =    2.0000000  ORB. ENERGY =   -0.229014
  0.68878235D-02  0.12706690D-01  0.20512537D-01  0.26701228D-01  0.22784206D-01
  0.78668389D-02  0.12468193D-01  0.57465787D-02 -0.16114007D-01 -0.17093489D+00
 -0.13106203D+00 -0.65409139D-01  0.10533488D+00  0.80764103D-01  0.40306948D-01
 -0.24519827D-14 -0.18800248D-14 -0.93826414D-15 -0.33481588D-02 -0.35432897D-02
  0.27950602D-02 -0.18787968D-14  0.95369778D-02  0.35779545D-02 -0.76927804D-02
 -0.55514879D-01 -0.11594487D-14 -0.79022870D-15 -0.14015963D-01 -0.23773726D-01
 -0.27065547D-01 -0.14616431D-01 -0.32896806D-02  0.16805819D-02  0.38166742D-02
 -0.14015963D-01 -0.23773726D-01 -0.27065547D-01 -0.14616431D-01 -0.32896806D-02
  0.16805819D-02 -0.38166742D-02  0.32404356D-01  0.54963920D-01  0.62574481D-01
  0.40332725D-01  0.38456124D-02  0.23426318D-02  0.30674689D-15 -0.44521829D-01
 -0.81990667D-01 -0.13247458D+00 -0.17338075D+00 -0.14851615D+00 -0.51091276D-01
 -0.71867561D-01 -0.35527789D-01  0.93720031D-01  0.10528938D+01  0.81969467D+00
  0.38922002D+00 -0.36146843D+00 -0.28140894D+00 -0.13362292D+00  0.85241746D-14
  0.66362060D-14  0.31511054D-14  0.66997600D-01  0.84981449D-01 -0.33275512D-01
  0.32255278D-14 -0.29954876D-01  0.49128347D-03  0.24062324D-02  0.16719413D-01
 -0.26905738D-14 -0.76970064D-15 -0.14403267D-01 -0.24430666D-01 -0.27813450D-01
 -0.13016930D-01  0.22173539D-01 -0.10217001D-01  0.66837221D-02 -0.14403267D-01
 -0.24430666D-01 -0.27813450D-01 -0.13016930D-01  0.22173539D-01 -0.10217001D-01
 -0.66837221D-02
END DATA
 TOTAL ENERGY =    -95.863690264563 THE VIRIAL(-V/T)=   2.00984501
