 b3lyp/6-31G* opt out=wfn                                
GAUSSIAN             22 MOL ORBITALS    136 PRIMITIVES        4 NUCLEI
  Cl   1    (CENTRE  1)   0.00000000  0.00000000  0.70563517  CHARGE = 17.0
  F    2    (CENTRE  2)   0.00000000  3.26191089  0.54156788  CHARGE =  9.0
  F    3    (CENTRE  3)   0.00000000  0.00000000 -2.41600220  CHARGE =  9.0
  F    4    (CENTRE  4)   0.00000000 -3.26191089  0.54156788  CHARGE =  9.0
CENTRE ASSIGNMENTS    1  1  1  1  1  1  1  1  1  1  1  1  1  1  1  1  1  1  1  1
CENTRE ASSIGNMENTS    1  1  1  1  1  1  1  1  1  1  1  1  1  1  1  1  1  1  1  1
CENTRE ASSIGNMENTS    1  1  1  1  1  1  1  1  1  1  1  1  2  2  2  2  2  2  2  2
CENTRE ASSIGNMENTS    2  2  2  2  2  2  2  2  2  2  2  2  2  2  2  2  2  2  2  2
CENTRE ASSIGNMENTS    3  3  3  3  3  3  3  3  3  3  3  3  3  3  3  3  3  3  3  3
CENTRE ASSIGNMENTS    3  3  3  3  3  3  3  3  4  4  4  4  4  4  4  4  4  4  4  4
CENTRE ASSIGNMENTS    4  4  4  4  4  4  4  4  4  4  4  4  4  4  4  4
TYPE ASSIGNMENTS      1  1  1  1  1  1  1  1  1  1  1  1  2  2  2  2  2  2  3  3
TYPE ASSIGNMENTS      3  3  3  3  4  4  4  4  4  4  1  1  1  2  2  2  3  3  3  4
TYPE ASSIGNMENTS      4  4  1  2  3  4  5  6  7  8  9 10  1  1  1  1  1  1  1  1
TYPE ASSIGNMENTS      1  2  2  2  3  3  3  4  4  4  1  2  3  4  5  6  7  8  9 10
TYPE ASSIGNMENTS      1  1  1  1  1  1  1  1  1  2  2  2  3  3  3  4  4  4  1  2
TYPE ASSIGNMENTS      3  4  5  6  7  8  9 10  1  1  1  1  1  1  1  1  1  2  2  2
TYPE ASSIGNMENTS      3  3  3  4  4  4  1  2  3  4  5  6  7  8  9 10
EXPONENTS  0.2518010D+05 0.3780350D+04 0.8604740D+03 0.2421450D+03 0.7733490D+02
EXPONENTS  0.2624700D+02 0.4917650D+03 0.1169840D+03 0.3741530D+02 0.1378340D+02
EXPONENTS  0.5452150D+01 0.2225880D+01 0.4917650D+03 0.1169840D+03 0.3741530D+02
EXPONENTS  0.1378340D+02 0.5452150D+01 0.2225880D+01 0.4917650D+03 0.1169840D+03
EXPONENTS  0.3741530D+02 0.1378340D+02 0.5452150D+01 0.2225880D+01 0.4917650D+03
EXPONENTS  0.1169840D+03 0.3741530D+02 0.1378340D+02 0.5452150D+01 0.2225880D+01
EXPONENTS  0.3186490D+01 0.1144270D+01 0.4203770D+00 0.3186490D+01 0.1144270D+01
EXPONENTS  0.4203770D+00 0.3186490D+01 0.1144270D+01 0.4203770D+00 0.3186490D+01
EXPONENTS  0.1144270D+01 0.4203770D+00 0.1426570D+00 0.1426570D+00 0.1426570D+00
EXPONENTS  0.1426570D+00 0.7500000D+00 0.7500000D+00 0.7500000D+00 0.7500000D+00
EXPONENTS  0.7500000D+00 0.7500000D+00 0.7001713D+04 0.1051366D+04 0.2392857D+03
EXPONENTS  0.6739745D+02 0.2151996D+02 0.7403101D+01 0.2084795D+02 0.4808308D+01
EXPONENTS  0.1344070D+01 0.2084795D+02 0.4808308D+01 0.1344070D+01 0.2084795D+02
EXPONENTS  0.4808308D+01 0.1344070D+01 0.2084795D+02 0.4808308D+01 0.1344070D+01
EXPONENTS  0.3581514D+00 0.3581514D+00 0.3581514D+00 0.3581514D+00 0.8000000D+00
EXPONENTS  0.8000000D+00 0.8000000D+00 0.8000000D+00 0.8000000D+00 0.8000000D+00
EXPONENTS  0.7001713D+04 0.1051366D+04 0.2392857D+03 0.6739745D+02 0.2151996D+02
EXPONENTS  0.7403101D+01 0.2084795D+02 0.4808308D+01 0.1344070D+01 0.2084795D+02
EXPONENTS  0.4808308D+01 0.1344070D+01 0.2084795D+02 0.4808308D+01 0.1344070D+01
EXPONENTS  0.2084795D+02 0.4808308D+01 0.1344070D+01 0.3581514D+00 0.3581514D+00
EXPONENTS  0.3581514D+00 0.3581514D+00 0.8000000D+00 0.8000000D+00 0.8000000D+00
EXPONENTS  0.8000000D+00 0.8000000D+00 0.8000000D+00 0.7001713D+04 0.1051366D+04
EXPONENTS  0.2392857D+03 0.6739745D+02 0.2151996D+02 0.7403101D+01 0.2084795D+02
EXPONENTS  0.4808308D+01 0.1344070D+01 0.2084795D+02 0.4808308D+01 0.1344070D+01
EXPONENTS  0.2084795D+02 0.4808308D+01 0.1344070D+01 0.2084795D+02 0.4808308D+01
EXPONENTS  0.1344070D+01 0.3581514D+00 0.3581514D+00 0.3581514D+00 0.3581514D+00
EXPONENTS  0.8000000D+00 0.8000000D+00 0.8000000D+00 0.8000000D+00 0.8000000D+00
EXPONENTS  0.8000000D+00
MO    1     MO 0.0        OCC NO =    2.0000000  ORB. ENERGY = -101.793086
  0.26008744D+01  0.48029710D+01  0.77927065D+01  0.10346793D+02  0.89419584D+01
  0.27975509D+01 -0.25882485D-02 -0.11786369D-01 -0.18365407D-01  0.34740823D-02
  0.22685815D-01  0.91458623D-02  0.00000000D+00  0.00000000D+00  0.00000000D+00
  0.00000000D+00  0.00000000D+00  0.00000000D+00  0.00000000D+00  0.00000000D+00
  0.00000000D+00  0.00000000D+00  0.00000000D+00  0.00000000D+00 -0.10441759D-02
 -0.13183278D-02 -0.13583850D-02 -0.98440425D-03 -0.42705318D-03 -0.77484015D-04
  0.89833104D-02 -0.10191761D-02 -0.82786307D-02  0.00000000D+00  0.00000000D+00
  0.00000000D+00  0.00000000D+00  0.00000000D+00  0.00000000D+00 -0.94039643D-06
  0.59154402D-05  0.38876686D-05  0.24708549D-03  0.00000000D+00  0.00000000D+00
  0.26400574D-05  0.75349407D-02  0.75309582D-02  0.75447053D-02  0.00000000D+00
  0.00000000D+00  0.00000000D+00  0.65676090D-05  0.12115922D-04  0.19624633D-04
  0.25864775D-04  0.22203558D-04  0.75472422D-05 -0.62989580D-04 -0.28294500D-04
  0.83830876D-04  0.00000000D+00  0.00000000D+00  0.00000000D+00 -0.21264780D-03
 -0.16413476D-03 -0.69677332D-04  0.16297617D-04  0.12579511D-04  0.53401656D-05
 -0.41753832D-04  0.00000000D+00 -0.17761532D-04 -0.96677313D-06  0.63205651D-04
 -0.84475383D-05  0.62135415D-04  0.00000000D+00  0.00000000D+00  0.11166962D-04
  0.56947390D-05  0.10505652D-04  0.17016415D-04  0.22427209D-04  0.19252588D-04
  0.65441737D-05 -0.60442188D-04 -0.27150228D-04  0.80440631D-04  0.00000000D+00
  0.00000000D+00  0.00000000D+00  0.00000000D+00  0.00000000D+00  0.00000000D+00
  0.17425030D-03  0.13449719D-03  0.57095799D-04 -0.20230647D-04  0.00000000D+00
  0.00000000D+00  0.17338245D-04  0.59136386D-04  0.59034462D-04 -0.74792265D-04
  0.00000000D+00  0.00000000D+00  0.00000000D+00  0.65676090D-05  0.12115922D-04
  0.19624633D-04  0.25864775D-04  0.22203558D-04  0.75472422D-05 -0.62989580D-04
 -0.28294500D-04  0.83830876D-04  0.00000000D+00  0.00000000D+00  0.00000000D+00
  0.21264780D-03  0.16413476D-03  0.69677332D-04  0.16297617D-04  0.12579511D-04
  0.53401656D-05 -0.41753832D-04  0.00000000D+00  0.17761532D-04 -0.96677313D-06
  0.63205651D-04 -0.84475383D-05  0.62135415D-04  0.00000000D+00  0.00000000D+00
 -0.11166962D-04
MO    2     MO 0.0        OCC NO =    2.0000000  ORB. ENERGY =  -24.778065
 -0.12542213D-04 -0.23161397D-04 -0.37578817D-04 -0.49895404D-04 -0.43120862D-04
 -0.13490647D-04 -0.51536708D-05 -0.23468791D-04 -0.36568846D-04  0.69175260D-05
  0.45171559D-04  0.18211065D-04  0.00000000D+00  0.00000000D+00  0.00000000D+00
  0.00000000D+00  0.00000000D+00  0.00000000D+00  0.00000000D+00  0.00000000D+00
  0.00000000D+00  0.00000000D+00  0.00000000D+00  0.00000000D+00  0.14493949D-02
  0.18299384D-02  0.18855409D-02  0.13664274D-02  0.59278203D-03  0.10755366D-03
  0.22286578D-03 -0.25284608D-04 -0.20538348D-03  0.00000000D+00  0.00000000D+00
  0.00000000D+00  0.00000000D+00  0.00000000D+00  0.00000000D+00  0.23990926D-04
 -0.15091177D-03 -0.99180270D-04 -0.11132014D-03  0.00000000D+00  0.00000000D+00
  0.57484799D-04  0.19817212D-03  0.19616749D-03  0.66968266D-03  0.00000000D+00
  0.00000000D+00  0.00000000D+00  0.60204937D-05  0.11106604D-04  0.17989801D-04
  0.23710107D-04  0.20353889D-04  0.69185185D-05 -0.46270880D-04 -0.20784571D-04
  0.61580478D-04  0.00000000D+00  0.00000000D+00  0.00000000D+00 -0.69635464D-04
 -0.53748968D-04 -0.22817133D-04 -0.14863129D-03 -0.11472284D-03 -0.48701333D-04
 -0.18242263D-04  0.00000000D+00  0.91671451D-05  0.43494652D-04  0.78395654D-04
  0.14976988D-04 -0.27306518D-04  0.00000000D+00  0.00000000D+00 -0.16951794D-03
  0.98572129D+00  0.18184582D+01  0.29454279D+01  0.38820001D+01  0.33324944D+01
  0.11327528D+01 -0.14768563D-01 -0.66339403D-02  0.19655022D-01  0.00000000D+00
  0.00000000D+00  0.00000000D+00  0.00000000D+00  0.00000000D+00  0.00000000D+00
  0.28022144D-02  0.21629228D-02  0.91818874D-03  0.49732982D-02  0.00000000D+00
  0.00000000D+00 -0.31046050D-04 -0.89007444D-02 -0.88837823D-02 -0.90847405D-02
  0.00000000D+00  0.00000000D+00  0.00000000D+00  0.60204937D-05  0.11106604D-04
  0.17989801D-04  0.23710107D-04  0.20353889D-04  0.69185185D-05 -0.46270880D-04
 -0.20784571D-04  0.61580478D-04  0.00000000D+00  0.00000000D+00  0.00000000D+00
  0.69635464D-04  0.53748968D-04  0.22817133D-04 -0.14863129D-03 -0.11472284D-03
 -0.48701333D-04 -0.18242263D-04  0.00000000D+00 -0.91671451D-05  0.43494652D-04
  0.78395654D-04  0.14976988D-04 -0.27306518D-04  0.00000000D+00  0.00000000D+00
  0.16951794D-03
MO    3     MO 0.0        OCC NO =    2.0000000  ORB. ENERGY =  -24.696938
 -0.25795437D-04 -0.47635802D-04 -0.77287958D-04 -0.10261935D-03 -0.88686223D-04
 -0.27746072D-04 -0.77078478D-05 -0.35100005D-04 -0.54692492D-04  0.10345876D-04
  0.67558739D-04  0.27236532D-04  0.00000000D+00  0.00000000D+00  0.00000000D+00
  0.00000000D+00  0.00000000D+00  0.00000000D+00  0.00000000D+00  0.00000000D+00
  0.00000000D+00  0.00000000D+00  0.00000000D+00  0.00000000D+00  0.16901561D-03
  0.21339122D-03  0.21987509D-03  0.15934067D-03  0.69124995D-04  0.12541956D-04
  0.33062385D-03 -0.37509994D-04 -0.30468865D-03  0.00000000D+00  0.00000000D+00
  0.00000000D+00  0.00000000D+00  0.00000000D+00  0.00000000D+00  0.39123318D-05
 -0.24610009D-04 -0.16173870D-04 -0.97755867D-04  0.00000000D+00  0.00000000D+00
 -0.14360337D-06  0.21993928D-03  0.81901822D-03  0.25365465D-03  0.00000000D+00
  0.00000000D+00  0.00000000D+00  0.69703417D+00  0.12858883D+01  0.20828036D+01
  0.27450830D+01  0.23565104D+01  0.80100471D+00 -0.10545787D-01 -0.47370971D-02
  0.14035060D-01  0.00000000D+00  0.00000000D+00  0.00000000D+00 -0.15460092D-02
 -0.11933058D-02 -0.50657376D-03  0.91699516D-04  0.70779372D-04  0.30046760D-04
  0.33666225D-02  0.00000000D+00  0.24792030D-04 -0.79679598D-05 -0.61792213D-02
 -0.62948729D-02 -0.61756768D-02  0.00000000D+00  0.00000000D+00  0.25561076D-04
  0.19080395D-04  0.35199504D-04  0.57014013D-04  0.75143040D-04  0.64506377D-04
  0.21926452D-04 -0.11937725D-03 -0.53623465D-04  0.15887547D-03  0.00000000D+00
  0.00000000D+00  0.00000000D+00  0.00000000D+00  0.00000000D+00  0.00000000D+00
  0.11866623D-03  0.91593956D-04  0.38882821D-04 -0.10347552D-03  0.00000000D+00
  0.00000000D+00 -0.30097910D-04  0.16836830D-03  0.27165064D-05  0.84008100D-04
  0.00000000D+00  0.00000000D+00  0.00000000D+00  0.69703417D+00  0.12858883D+01
  0.20828036D+01  0.27450830D+01  0.23565104D+01  0.80100471D+00 -0.10545787D-01
 -0.47370971D-02  0.14035060D-01  0.00000000D+00  0.00000000D+00  0.00000000D+00
  0.15460092D-02  0.11933058D-02  0.50657376D-03  0.91699516D-04  0.70779372D-04
  0.30046760D-04  0.33666225D-02  0.00000000D+00 -0.24792030D-04 -0.79679598D-05
 -0.61792213D-02 -0.62948729D-02 -0.61756768D-02  0.00000000D+00  0.00000000D+00
 -0.25561076D-04
MO    4     MO 0.0        OCC NO =    2.0000000  ORB. ENERGY =  -24.696936
  0.00000000D+00  0.00000000D+00  0.00000000D+00  0.00000000D+00  0.00000000D+00
  0.00000000D+00  0.00000000D+00  0.00000000D+00  0.00000000D+00  0.00000000D+00
  0.00000000D+00  0.00000000D+00  0.00000000D+00  0.00000000D+00  0.00000000D+00
  0.00000000D+00  0.00000000D+00  0.00000000D+00 -0.14135449D-02 -0.17846759D-02
 -0.18389030D-02 -0.13326295D-02 -0.57811988D-03 -0.10489337D-03  0.00000000D+00
  0.00000000D+00  0.00000000D+00  0.00000000D+00  0.00000000D+00  0.00000000D+00
  0.00000000D+00  0.00000000D+00  0.00000000D+00  0.00000000D+00  0.00000000D+00
  0.00000000D+00 -0.16998493D-04  0.10692679D-03  0.70273030D-04  0.00000000D+00
  0.00000000D+00  0.00000000D+00  0.00000000D+00  0.00000000D+00 -0.18902482D-03
  0.00000000D+00  0.00000000D+00  0.00000000D+00  0.00000000D+00  0.00000000D+00
  0.00000000D+00 -0.45055967D-04  0.69692609D+00  0.12856889D+01  0.20824807D+01
  0.27446573D+01  0.23561450D+01  0.80088051D+00 -0.10082466D-01 -0.45289767D-02
  0.13418441D-01  0.00000000D+00  0.00000000D+00  0.00000000D+00 -0.11442806D-02
 -0.88322669D-03 -0.37494117D-03  0.23034680D-04  0.17779594D-04  0.75476680D-05
  0.40350374D-02  0.00000000D+00 -0.14038897D-03  0.12500438D-04 -0.67022316D-02
 -0.66629987D-02 -0.66990633D-02  0.00000000D+00  0.00000000D+00 -0.16413768D-04
  0.00000000D+00  0.00000000D+00  0.00000000D+00  0.00000000D+00  0.00000000D+00
  0.00000000D+00  0.00000000D+00  0.00000000D+00  0.00000000D+00  0.00000000D+00
  0.00000000D+00  0.00000000D+00  0.16947874D-03  0.13081420D-03  0.55532322D-04
  0.00000000D+00  0.00000000D+00  0.00000000D+00  0.00000000D+00  0.00000000D+00
 -0.23221146D-04  0.00000000D+00  0.00000000D+00  0.00000000D+00  0.00000000D+00
  0.00000000D+00  0.00000000D+00 -0.17681949D-03 -0.69692609D+00 -0.12856889D+01
 -0.20824807D+01 -0.27446573D+01 -0.23561450D+01 -0.80088051D+00  0.10082466D-01
  0.45289767D-02 -0.13418441D-01  0.00000000D+00  0.00000000D+00  0.00000000D+00
 -0.11442806D-02 -0.88322669D-03 -0.37494117D-03 -0.23034680D-04 -0.17779594D-04
 -0.75476680D-05 -0.40350374D-02  0.00000000D+00 -0.14038897D-03 -0.12500438D-04
  0.67022316D-02  0.66629987D-02  0.66990633D-02  0.00000000D+00  0.00000000D+00
 -0.16413768D-04
MO    5     MO 0.0        OCC NO =    2.0000000  ORB. ENERGY =   -9.684398
 -0.74368986D+00 -0.13733539D+01 -0.22282340D+01 -0.29585455D+01 -0.25568493D+01
 -0.79992723D+00 -0.17488245D+00 -0.79637986D+00 -0.12409115D+01  0.23473635D+00
  0.15328322D+01  0.61796645D+00  0.00000000D+00  0.00000000D+00  0.00000000D+00
  0.00000000D+00  0.00000000D+00  0.00000000D+00  0.00000000D+00  0.00000000D+00
  0.00000000D+00  0.00000000D+00  0.00000000D+00  0.00000000D+00 -0.15142971D+00
 -0.19118809D+00 -0.19699732D+00 -0.14276144D+00 -0.61932611D-01 -0.11236978D-01
 -0.29666291D-01  0.33657053D-02  0.27339172D-01  0.00000000D+00  0.00000000D+00
  0.00000000D+00  0.00000000D+00  0.00000000D+00  0.00000000D+00  0.14707998D-03
 -0.92518731D-03 -0.60803956D-03 -0.17720733D-02  0.00000000D+00  0.00000000D+00
  0.55506090D-04 -0.15934850D-01 -0.13961955D-01 -0.14368804D-01  0.00000000D+00
  0.00000000D+00  0.00000000D+00 -0.78295570D-04 -0.14443963D-03 -0.23395452D-03
 -0.30834620D-03 -0.26469911D-03 -0.89974241D-04  0.10781988D-03  0.48431973D-04
 -0.14349414D-03  0.00000000D+00  0.00000000D+00  0.00000000D+00 -0.50789413D-03
 -0.39202418D-03 -0.16641934D-03  0.80855701D-04  0.62409443D-04  0.26493617D-04
  0.38618726D-03  0.00000000D+00  0.43408265D-03 -0.40817462D-04 -0.86824481D-05
 -0.14025051D-02 -0.73588451D-05  0.00000000D+00  0.00000000D+00  0.11452451D-03
 -0.93120899D-04 -0.17178939D-03 -0.27825400D-03 -0.36673180D-03 -0.31482010D-03
 -0.10701093D-03  0.15735177D-03  0.70681365D-04 -0.20941458D-03  0.00000000D+00
  0.00000000D+00  0.00000000D+00  0.00000000D+00  0.00000000D+00  0.00000000D+00
  0.39846079D-03  0.30755674D-03  0.13056182D-03  0.40910091D-03  0.00000000D+00
  0.00000000D+00 -0.54899485D-03 -0.47415788D-04 -0.45459933D-04 -0.15157307D-02
  0.00000000D+00  0.00000000D+00  0.00000000D+00 -0.78295570D-04 -0.14443963D-03
 -0.23395452D-03 -0.30834620D-03 -0.26469911D-03 -0.89974241D-04  0.10781988D-03
  0.48431973D-04 -0.14349414D-03  0.00000000D+00  0.00000000D+00  0.00000000D+00
  0.50789413D-03  0.39202418D-03  0.16641934D-03  0.80855701D-04  0.62409443D-04
  0.26493617D-04  0.38618726D-03  0.00000000D+00 -0.43408265D-03 -0.40817462D-04
 -0.86824481D-05 -0.14025051D-02 -0.73588451D-05  0.00000000D+00  0.00000000D+00
 -0.11452451D-03
MO    6     MO 0.0        OCC NO =    2.0000000  ORB. ENERGY =   -7.450223
  0.00000000D+00  0.00000000D+00  0.00000000D+00  0.00000000D+00  0.00000000D+00
  0.00000000D+00  0.00000000D+00  0.00000000D+00  0.00000000D+00  0.00000000D+00
  0.00000000D+00  0.00000000D+00  0.00000000D+00  0.00000000D+00  0.00000000D+00
  0.00000000D+00  0.00000000D+00  0.00000000D+00  0.13045901D+02  0.16471145D+02
  0.16971619D+02  0.12299115D+02  0.53355888D+01  0.96808281D+00  0.00000000D+00
  0.00000000D+00  0.00000000D+00  0.00000000D+00  0.00000000D+00  0.00000000D+00
  0.00000000D+00  0.00000000D+00  0.00000000D+00  0.00000000D+00  0.00000000D+00
  0.00000000D+00 -0.26138407D-02  0.16442021D-01  0.10805811D-01  0.00000000D+00
  0.00000000D+00  0.00000000D+00  0.00000000D+00  0.00000000D+00 -0.77725117D-03
  0.00000000D+00  0.00000000D+00  0.00000000D+00  0.00000000D+00  0.00000000D+00
  0.00000000D+00 -0.16542432D-02  0.13652070D-04  0.25185332D-04  0.40793668D-04
  0.53765031D-04  0.46154472D-04  0.15688430D-04 -0.50999014D-03 -0.22908418D-03
  0.67873005D-03  0.00000000D+00  0.00000000D+00  0.00000000D+00 -0.17138879D-02
 -0.13228849D-02 -0.56158178D-03 -0.28826320D-04 -0.22249941D-04 -0.94453881D-05
 -0.21371993D-03  0.00000000D+00  0.11606649D-02 -0.32921379D-04  0.81699782D-03
 -0.20991150D-02  0.81837001D-03  0.00000000D+00  0.00000000D+00  0.22320348D-03
  0.00000000D+00  0.00000000D+00  0.00000000D+00  0.00000000D+00  0.00000000D+00
  0.00000000D+00  0.00000000D+00  0.00000000D+00  0.00000000D+00  0.00000000D+00
  0.00000000D+00  0.00000000D+00 -0.20879846D-03 -0.16116360D-03 -0.68416035D-04
  0.00000000D+00  0.00000000D+00  0.00000000D+00  0.00000000D+00  0.00000000D+00
  0.51230410D-04  0.00000000D+00  0.00000000D+00  0.00000000D+00  0.00000000D+00
  0.00000000D+00  0.00000000D+00 -0.12558488D-02 -0.13652070D-04 -0.25185332D-04
 -0.40793668D-04 -0.53765031D-04 -0.46154472D-04 -0.15688430D-04  0.50999014D-03
  0.22908418D-03 -0.67873005D-03  0.00000000D+00  0.00000000D+00  0.00000000D+00
 -0.17138879D-02 -0.13228849D-02 -0.56158178D-03  0.28826320D-04  0.22249941D-04
  0.94453881D-05  0.21371993D-03  0.00000000D+00  0.11606649D-02  0.32921379D-04
 -0.81699782D-03  0.20991150D-02 -0.81837001D-03  0.00000000D+00  0.00000000D+00
  0.22320348D-03
MO    7     MO 0.0        OCC NO =    2.0000000  ORB. ENERGY =   -7.448188
 -0.89034451D-02 -0.16441774D-01 -0.26676388D-01 -0.35419667D-01 -0.30610566D-01
 -0.95767181D-02 -0.21596559D-02 -0.98346433D-02 -0.15324247D-01  0.28988029D-02
  0.18929231D-01  0.76313829D-02  0.00000000D+00  0.00000000D+00  0.00000000D+00
  0.00000000D+00  0.00000000D+00  0.00000000D+00  0.00000000D+00  0.00000000D+00
  0.00000000D+00  0.00000000D+00  0.00000000D+00  0.00000000D+00  0.13047233D+02
  0.16472828D+02  0.16973353D+02  0.12300371D+02  0.53361338D+01  0.96818169D+00
 -0.13245574D-03  0.15027391D-04  0.12206548D-03  0.00000000D+00  0.00000000D+00
  0.00000000D+00  0.00000000D+00  0.00000000D+00  0.00000000D+00 -0.25634500D-02
  0.16125045D-01  0.10597492D-01 -0.34330220D-03  0.00000000D+00  0.00000000D+00
 -0.78613029D-03  0.86076390D-03  0.75919266D-03 -0.26911270D-02  0.00000000D+00
  0.00000000D+00  0.00000000D+00 -0.74272864D-05 -0.13701855D-04 -0.22193430D-04
 -0.29250384D-04 -0.25109928D-04 -0.85351502D-05  0.39024491D-04  0.17529541D-04
 -0.51936484D-04  0.00000000D+00  0.00000000D+00  0.00000000D+00 -0.12005029D-03
 -0.92662257D-04 -0.39336329D-04 -0.20161610D-03 -0.15561981D-03 -0.66062624D-04
  0.99974549D-04  0.00000000D+00 -0.45566684D-04  0.99944292D-04  0.26178756D-04
  0.43850585D-04 -0.10238560D-03  0.00000000D+00  0.00000000D+00  0.84621029D-03
 -0.85875933D-04 -0.15842388D-03 -0.25660536D-03 -0.33819943D-03 -0.29032655D-03
 -0.98685300D-04  0.94568691D-03  0.42479626D-03 -0.12585854D-02  0.00000000D+00
  0.00000000D+00  0.00000000D+00  0.00000000D+00  0.00000000D+00  0.00000000D+00
 -0.18510180D-02 -0.14287304D-02 -0.60651457D-03  0.87977358D-03  0.00000000D+00
  0.00000000D+00  0.15961952D-02 -0.12668370D-02 -0.12710128D-02  0.21706436D-02
  0.00000000D+00  0.00000000D+00  0.00000000D+00 -0.74272864D-05 -0.13701855D-04
 -0.22193430D-04 -0.29250384D-04 -0.25109928D-04 -0.85351502D-05  0.39024491D-04
  0.17529541D-04 -0.51936484D-04  0.00000000D+00  0.00000000D+00  0.00000000D+00
  0.12005029D-03  0.92662257D-04  0.39336329D-04 -0.20161610D-03 -0.15561981D-03
 -0.66062624D-04  0.99974549D-04  0.00000000D+00  0.45566684D-04  0.99944292D-04
  0.26178756D-04  0.43850585D-04 -0.10238560D-03  0.00000000D+00  0.00000000D+00
 -0.84621029D-03
MO    8     MO 0.0        OCC NO =    2.0000000  ORB. ENERGY =   -7.431598
  0.00000000D+00  0.00000000D+00  0.00000000D+00  0.00000000D+00  0.00000000D+00
  0.00000000D+00  0.00000000D+00  0.00000000D+00  0.00000000D+00  0.00000000D+00
  0.00000000D+00  0.00000000D+00  0.13059458D+02  0.16488262D+02  0.16989256D+02
  0.12311897D+02  0.53411336D+01  0.96908885D+00  0.00000000D+00  0.00000000D+00
  0.00000000D+00  0.00000000D+00  0.00000000D+00  0.00000000D+00  0.00000000D+00
  0.00000000D+00  0.00000000D+00  0.00000000D+00  0.00000000D+00  0.00000000D+00
  0.00000000D+00  0.00000000D+00  0.00000000D+00 -0.22838362D-02  0.14366172D-01
  0.94415483D-02  0.00000000D+00  0.00000000D+00  0.00000000D+00  0.00000000D+00
  0.00000000D+00  0.00000000D+00  0.00000000D+00 -0.85896483D-03  0.00000000D+00
  0.00000000D+00  0.00000000D+00  0.00000000D+00  0.00000000D+00  0.00000000D+00
 -0.13139287D-02  0.00000000D+00  0.00000000D+00  0.00000000D+00  0.00000000D+00
  0.00000000D+00  0.00000000D+00  0.00000000D+00  0.00000000D+00  0.00000000D+00
  0.00000000D+00 -0.17244921D-03 -0.13310699D-03 -0.56505644D-04  0.00000000D+00
  0.00000000D+00  0.00000000D+00  0.00000000D+00  0.00000000D+00  0.00000000D+00
  0.00000000D+00  0.11760359D-03  0.00000000D+00  0.00000000D+00  0.00000000D+00
  0.00000000D+00  0.00000000D+00  0.72304545D-03 -0.23451073D-04  0.00000000D+00
  0.00000000D+00  0.00000000D+00  0.00000000D+00  0.00000000D+00  0.00000000D+00
  0.00000000D+00  0.00000000D+00  0.00000000D+00  0.00000000D+00 -0.54037508D-04
 -0.41709499D-04 -0.17706223D-04  0.00000000D+00  0.00000000D+00  0.00000000D+00
  0.00000000D+00  0.00000000D+00  0.00000000D+00  0.00000000D+00  0.60755378D-04
  0.00000000D+00  0.00000000D+00  0.00000000D+00  0.00000000D+00  0.00000000D+00
  0.00000000D+00 -0.10520460D-02  0.00000000D+00  0.00000000D+00  0.00000000D+00
  0.00000000D+00  0.00000000D+00  0.00000000D+00  0.00000000D+00  0.00000000D+00
  0.00000000D+00  0.00000000D+00 -0.17244921D-03 -0.13310699D-03 -0.56505644D-04
  0.00000000D+00  0.00000000D+00  0.00000000D+00  0.00000000D+00  0.00000000D+00
  0.00000000D+00  0.00000000D+00  0.11760359D-03  0.00000000D+00  0.00000000D+00
  0.00000000D+00  0.00000000D+00  0.00000000D+00 -0.72304545D-03 -0.23451073D-04
  0.00000000D+00
MO    9     MO 0.0        OCC NO =    2.0000000  ORB. ENERGY =   -1.281392
  0.83685792D-01  0.15454050D+00  0.25073830D+00  0.33291864D+00  0.28771665D+00
  0.90014060D-01  0.24090556D-01  0.10970360D+00  0.17093910D+00 -0.32335602D-01
 -0.21115201D+00 -0.85126641D-01  0.00000000D+00  0.00000000D+00  0.00000000D+00
  0.00000000D+00  0.00000000D+00  0.00000000D+00  0.00000000D+00  0.00000000D+00
  0.00000000D+00  0.00000000D+00  0.00000000D+00  0.00000000D+00  0.62479111D+00
  0.78883210D+00  0.81280068D+00  0.58902625D+00  0.25553073D+00  0.46363187D-01
 -0.12142742D+00  0.13776204D-01  0.11190226D+00  0.00000000D+00  0.00000000D+00
  0.00000000D+00  0.00000000D+00  0.00000000D+00  0.00000000D+00  0.89325656D-02
 -0.56189130D-01 -0.36927889D-01  0.66693650D-02  0.00000000D+00  0.00000000D+00
  0.91732648D-03 -0.21069097D-01 -0.15285926D-02  0.21196019D-01  0.00000000D+00
  0.00000000D+00  0.00000000D+00 -0.51810017D-01 -0.95579096D-01 -0.15481320D+00
 -0.20403992D+00 -0.17515762D+00 -0.59538068D-01 -0.86562474D-01 -0.38883287D-01
  0.11520331D+00  0.00000000D+00  0.00000000D+00  0.00000000D+00 -0.13343404D+00
 -0.10299266D+00 -0.43721720D-01 -0.15410108D-01 -0.11894477D-01 -0.50493594D-02
  0.35665242D-01  0.00000000D+00 -0.74145378D-02 -0.12509587D-02  0.11225690D-02
  0.10418998D-01  0.20605890D-02  0.00000000D+00  0.00000000D+00  0.13063273D-02
 -0.19137764D+00 -0.35305339D+00 -0.57185438D+00 -0.75368974D+00 -0.64700329D+00
 -0.21992378D+00 -0.32481146D+00 -0.14590315D+00  0.43228150D+00  0.00000000D+00
  0.00000000D+00  0.00000000D+00  0.00000000D+00  0.00000000D+00  0.00000000D+00
  0.37535491D+00  0.28972219D+00  0.12299082D+00  0.13563144D+00  0.00000000D+00
  0.00000000D+00  0.22337879D-01  0.40055547D-02  0.44762631D-02  0.35103647D-01
  0.00000000D+00  0.00000000D+00  0.00000000D+00 -0.51810017D-01 -0.95579096D-01
 -0.15481320D+00 -0.20403992D+00 -0.17515762D+00 -0.59538068D-01 -0.86562474D-01
 -0.38883287D-01  0.11520331D+00  0.00000000D+00  0.00000000D+00  0.00000000D+00
  0.13343404D+00  0.10299266D+00  0.43721720D-01 -0.15410108D-01 -0.11894477D-01
 -0.50493594D-02  0.35665242D-01  0.00000000D+00  0.74145378D-02 -0.12509587D-02
  0.11225690D-02  0.10418998D-01  0.20605890D-02  0.00000000D+00  0.00000000D+00
 -0.13063273D-02
MO   10     MO 0.0        OCC NO =    2.0000000  ORB. ENERGY =   -1.173735
  0.52084500D-01  0.96183172D-01  0.15605491D+00  0.20720245D+00  0.17906956D+00
  0.56023098D-01  0.15076012D-01  0.68653160D-01  0.10697470D+00 -0.20235811D-01
 -0.13214018D+00 -0.53272756D-01  0.00000000D+00  0.00000000D+00  0.00000000D+00
  0.00000000D+00  0.00000000D+00  0.00000000D+00  0.00000000D+00  0.00000000D+00
  0.00000000D+00  0.00000000D+00  0.00000000D+00  0.00000000D+00 -0.26857554D+00
 -0.33909094D+00 -0.34939418D+00 -0.25320149D+00 -0.10984360D+00 -0.19929890D-01
 -0.77000262D-01  0.87358471D-02  0.70960114D-01  0.00000000D+00  0.00000000D+00
  0.00000000D+00  0.00000000D+00  0.00000000D+00  0.00000000D+00 -0.37235327D-02
  0.23422393D-01  0.15393360D-01  0.69736951D-02  0.00000000D+00  0.00000000D+00
  0.31622496D-03 -0.10976153D-01  0.36122685D-01 -0.28344224D-01  0.00000000D+00
  0.00000000D+00  0.00000000D+00 -0.14050562D+00 -0.25920470D+00 -0.41984399D+00
 -0.55334385D+00 -0.47501681D+00 -0.16146362D+00 -0.23577198D+00 -0.10590720D+00
  0.31378160D+00  0.00000000D+00  0.00000000D+00  0.00000000D+00 -0.19063476D+00
 -0.14714373D+00 -0.62464419D-01  0.22936605D-01  0.17703894D-01  0.75155323D-02
  0.10327573D+00  0.00000000D+00 -0.12652614D-01  0.15108121D-02  0.25104296D-02
  0.19642894D-01  0.29449424D-02  0.00000000D+00  0.00000000D+00 -0.16763768D-02
  0.10843152D+00  0.20003442D+00  0.32400358D+00  0.42702860D+00  0.36658176D+00
  0.12460531D+00  0.18608084D+00  0.83586273D-01 -0.24764921D+00  0.00000000D+00
  0.00000000D+00  0.00000000D+00  0.00000000D+00  0.00000000D+00  0.00000000D+00
 -0.62668527D-01 -0.48371455D-01 -0.20534309D-01 -0.81367090D-01  0.00000000D+00
  0.00000000D+00 -0.61188332D-02 -0.33433299D-02 -0.15105700D-02 -0.14236475D-01
  0.00000000D+00  0.00000000D+00  0.00000000D+00 -0.14050562D+00 -0.25920470D+00
 -0.41984399D+00 -0.55334385D+00 -0.47501681D+00 -0.16146362D+00 -0.23577198D+00
 -0.10590720D+00  0.31378160D+00  0.00000000D+00  0.00000000D+00  0.00000000D+00
  0.19063476D+00  0.14714373D+00  0.62464419D-01  0.22936605D-01  0.17703894D-01
  0.75155323D-02  0.10327573D+00  0.00000000D+00  0.12652614D-01  0.15108121D-02
  0.25104296D-02  0.19642894D-01  0.29449424D-02  0.00000000D+00  0.00000000D+00
  0.16763768D-02
MO   11     MO 0.0        OCC NO =    2.0000000  ORB. ENERGY =   -1.171507
  0.00000000D+00  0.00000000D+00  0.00000000D+00  0.00000000D+00  0.00000000D+00
  0.00000000D+00  0.00000000D+00  0.00000000D+00  0.00000000D+00  0.00000000D+00
  0.00000000D+00  0.00000000D+00  0.00000000D+00  0.00000000D+00  0.00000000D+00
  0.00000000D+00  0.00000000D+00  0.00000000D+00 -0.84529554D+00 -0.10672307D+01
 -0.10996584D+01 -0.79690836D+00 -0.34571392D+00 -0.62725917D-01  0.00000000D+00
  0.00000000D+00  0.00000000D+00  0.00000000D+00  0.00000000D+00  0.00000000D+00
  0.00000000D+00  0.00000000D+00  0.00000000D+00  0.00000000D+00  0.00000000D+00
  0.00000000D+00 -0.12276530D-01  0.77223900D-01  0.50752086D-01  0.00000000D+00
  0.00000000D+00  0.00000000D+00  0.00000000D+00  0.00000000D+00  0.55160141D-03
  0.00000000D+00  0.00000000D+00  0.00000000D+00  0.00000000D+00  0.00000000D+00
  0.00000000D+00 -0.10251841D-01 -0.16025051D+00 -0.29563007D+00 -0.47884359D+00
 -0.63110385D+00 -0.54176970D+00 -0.18415369D+00 -0.26648551D+00 -0.11970351D+00
  0.35465729D+00  0.00000000D+00  0.00000000D+00  0.00000000D+00 -0.20483257D+00
 -0.15810248D+00 -0.67116549D-01  0.84737679D-02  0.65405794D-02  0.27765607D-02
  0.11990866D+00  0.00000000D+00 -0.14071751D-01  0.62807472D-03  0.12217686D-02
  0.20578434D-01  0.22845583D-02  0.00000000D+00  0.00000000D+00 -0.52704354D-03
  0.00000000D+00  0.00000000D+00  0.00000000D+00  0.00000000D+00  0.00000000D+00
  0.00000000D+00  0.00000000D+00  0.00000000D+00  0.00000000D+00  0.00000000D+00
  0.00000000D+00  0.00000000D+00  0.56785124D-01  0.43830280D-01  0.18606522D-01
  0.00000000D+00  0.00000000D+00  0.00000000D+00  0.00000000D+00  0.00000000D+00
  0.37599985D-02  0.00000000D+00  0.00000000D+00  0.00000000D+00  0.00000000D+00
  0.00000000D+00  0.00000000D+00  0.42810652D-02  0.16025051D+00  0.29563007D+00
  0.47884359D+00  0.63110385D+00  0.54176970D+00  0.18415369D+00  0.26648551D+00
  0.11970351D+00 -0.35465729D+00  0.00000000D+00  0.00000000D+00  0.00000000D+00
 -0.20483257D+00 -0.15810248D+00 -0.67116549D-01 -0.84737679D-02 -0.65405794D-02
 -0.27765607D-02 -0.11990866D+00  0.00000000D+00 -0.14071751D-01 -0.62807472D-03
 -0.12217686D-02 -0.20578434D-01 -0.22845583D-02  0.00000000D+00  0.00000000D+00
 -0.52704354D-03
MO   12     MO 0.0        OCC NO =    2.0000000  ORB. ENERGY =   -0.890062
  0.19946112D+00  0.36833998D+00  0.59762287D+00  0.79349583D+00  0.68575903D+00
  0.21454425D+00  0.57335736D-01  0.26109553D+00  0.40683656D+00 -0.76959018D-01
 -0.50254366D+00 -0.20260216D+00  0.00000000D+00  0.00000000D+00  0.00000000D+00
  0.00000000D+00  0.00000000D+00  0.00000000D+00  0.00000000D+00  0.00000000D+00
  0.00000000D+00  0.00000000D+00  0.00000000D+00  0.00000000D+00  0.56859083D-02
  0.71787625D-02  0.73968884D-02  0.53604304D-02  0.23254561D-02  0.42192795D-03
 -0.32008168D+00  0.36313963D-01  0.29497345D+00  0.00000000D+00  0.00000000D+00
  0.00000000D+00  0.00000000D+00  0.00000000D+00  0.00000000D+00  0.55347480D-03