 opted at B3LYP/def2TZVP
GAUSSIAN             57 MOL ORBITALS     96 PRIMITIVES        6 NUCLEI
  C    1    (CENTRE  1)   0.00000000  0.00000000  0.34845030  CHARGE =  6.0
  O    2    (CENTRE  2)   0.00000000  0.00000000  2.48187740  CHARGE =  8.0
  B    3    (CENTRE  3)   0.00000000  0.00000000 -2.52476113  CHARGE =  5.0
  H    4    (CENTRE  4)   0.00000000  2.20438443 -3.10730511  CHARGE =  1.0
  H    5    (CENTRE  5)  -1.90905292 -1.10219222 -3.10730511  CHARGE =  1.0
  H    6    (CENTRE  6)   1.90905292 -1.10219222 -3.10730511  CHARGE =  1.0
CENTRE ASSIGNMENTS    1  1  1  1  1  1  1  1  1  1  1  1  1  1  1  1  1  1  1  1
CENTRE ASSIGNMENTS    1  1  1  1  1  2  2  2  2  2  2  2  2  2  2  2  2  2  2  2
CENTRE ASSIGNMENTS    2  2  2  2  2  2  2  2  2  2  3  3  3  3  3  3  3  3  3  3
CENTRE ASSIGNMENTS    3  3  3  3  3  3  3  3  3  3  3  3  3  3  3  4  4  4  4  4
CENTRE ASSIGNMENTS    4  4  5  5  5  5  5  5  5  6  6  6  6  6  6  6
TYPE ASSIGNMENTS      1  1  1  1  1  1  1  2  2  2  3  3  3  4  4  4  2  3  4  5
TYPE ASSIGNMENTS      6  7  8  9 10  1  1  1  1  1  1  1  2  2  2  3  3  3  4  4
TYPE ASSIGNMENTS      4  2  3  4  5  6  7  8  9 10  1  1  1  1  1  1  1  2  2  2
TYPE ASSIGNMENTS      3  3  3  4  4  4  2  3  4  5  6  7  8  9 10  1  1  1  1  2
TYPE ASSIGNMENTS      3  4  1  1  1  1  2  3  4  1  1  1  1  2  3  4
EXPONENTS  0.1238402D+04 0.1862900D+03 0.4225118D+02 0.1167656D+02 0.3593051D+01
EXPONENTS  0.4024515D+00 0.1309018D+00 0.9468097D+01 0.2010355D+01 0.5477100D+00
EXPONENTS  0.9468097D+01 0.2010355D+01 0.5477100D+00 0.9468097D+01 0.2010355D+01
EXPONENTS  0.5477100D+00 0.1526861D+00 0.1526861D+00 0.1526861D+00 0.8000000D+00
EXPONENTS  0.8000000D+00 0.8000000D+00 0.8000000D+00 0.8000000D+00 0.8000000D+00
EXPONENTS  0.2266177D+04 0.3408701D+03 0.7736314D+02 0.2147964D+02 0.6658943D+01
EXPONENTS  0.8097598D+00 0.2553077D+00 0.1772150D+02 0.3863551D+01 0.1048092D+01
EXPONENTS  0.1772150D+02 0.3863551D+01 0.1048092D+01 0.1772150D+02 0.3863551D+01
EXPONENTS  0.1048092D+01 0.2764154D+00 0.2764154D+00 0.2764154D+00 0.1200000D+01
EXPONENTS  0.1200000D+01 0.1200000D+01 0.1200000D+01 0.1200000D+01 0.1200000D+01
EXPONENTS  0.8393183D+03 0.1262646D+03 0.2862060D+02 0.7879372D+01 0.2408886D+01
EXPONENTS  0.2510511D+00 0.8364887D-01 0.6033222D+01 0.1249916D+01 0.3387168D+00
EXPONENTS  0.6033222D+01 0.1249916D+01 0.3387168D+00 0.6033222D+01 0.1249916D+01
EXPONENTS  0.3387168D+00 0.9641563D-01 0.9641563D-01 0.9641563D-01 0.5000000D+00
EXPONENTS  0.5000000D+00 0.5000000D+00 0.5000000D+00 0.5000000D+00 0.5000000D+00
EXPONENTS  0.1301070D+02 0.1962257D+01 0.4445380D+00 0.1219496D+00 0.8000000D+00
EXPONENTS  0.8000000D+00 0.8000000D+00 0.1301070D+02 0.1962257D+01 0.4445380D+00
EXPONENTS  0.1219496D+00 0.8000000D+00 0.8000000D+00 0.8000000D+00 0.1301070D+02
EXPONENTS  0.1962257D+01 0.4445380D+00 0.1219496D+00 0.8000000D+00 0.8000000D+00
EXPONENTS  0.8000000D+00
MO    1     MO 0.0        OCC NO =    2.0000189  ORB. ENERGY =    0.000000
  0.75398779D+00  0.13562896D+01  0.19771617D+01  0.19363437D+01  0.76152341D+00
  0.84980213D-02 -0.41452722D-02 -0.10604868D-15 -0.84082652D-16 -0.40227870D-16
 -0.14804947D-13 -0.11738376D-13 -0.56160199D-14  0.88379144D-02  0.70073035D-02
  0.33525214D-02  0.71996382D-17 -0.99989846D-15  0.23370394D-02 -0.16314441D-02
 -0.16314441D-02  0.32628881D-02 -0.36763674D-15  0.41436569D-15  0.55948829D-14
 -0.16831803D+00 -0.30350550D+00 -0.44667779D+00 -0.44428104D+00 -0.17616258D+00
 -0.14351702D-02 -0.22103075D-02 -0.14132220D-15 -0.11204279D-15 -0.48798111D-16
  0.39209915D-13  0.31086328D-13  0.13539060D-13  0.17461430D-01  0.13843737D-01
  0.60293768D-02  0.13553144D-16  0.33822629D-14  0.21014351D-02  0.32096849D-03
  0.32096849D-03 -0.64193698D-03  0.83006935D-15  0.55066913D-15  0.13466887D-14
  0.22836467D+00  0.40995844D+00  0.59292680D+00  0.57311797D+00  0.22365212D+00
  0.20904814D-02  0.16162528D-02  0.76006641D-16  0.59365195D-16  0.29665975D-16
 -0.51520543D-13 -0.40240261D-13 -0.20108863D-13 -0.27175063D-02 -0.21225157D-02
 -0.10606636D-02  0.16653502D-16 -0.13707245D-14  0.54619846D-03  0.47292844D-03
  0.47292844D-03 -0.94585688D-03 -0.11831435D-15  0.93058057D-16  0.14296900D-14
 -0.33059162D-03 -0.56082871D-03 -0.63847397D-03 -0.31011443D-03  0.17052556D-15
  0.14203466D-03  0.29461430D-03 -0.33059162D-03 -0.56082871D-03 -0.63847397D-03
 -0.31011443D-03 -0.12300562D-03 -0.71017328D-04  0.29461430D-03 -0.33059162D-03
 -0.56082871D-03 -0.63847397D-03 -0.31011443D-03  0.12300562D-03 -0.71017328D-04
  0.29461430D-03
MO    2     MO 0.0        OCC NO =    2.0000100  ORB. ENERGY =    0.000000
  0.25271631D+00  0.45459159D+00  0.66269111D+00  0.64901001D+00  0.25524204D+00
  0.29799337D-02 -0.12576885D-02 -0.96504784D-16 -0.76515598D-16 -0.36607546D-16
  0.99520125D-14  0.78906367D-14  0.37751367D-14 -0.80164947D-03 -0.63560257D-03
 -0.30409290D-03  0.11915932D-16  0.43011778D-15 -0.15883986D-02 -0.87541910D-03
 -0.87541910D-03  0.17508382D-02 -0.50616250D-16  0.13331401D-15  0.16940372D-14
 -0.39466784D+00 -0.71165198D+00 -0.10473587D+01 -0.10417389D+01 -0.41306154D+00
 -0.52846341D-02  0.45481065D-02  0.10862698D-15  0.86121429D-16  0.37508553D-16
  0.41541243D-13  0.32934647D-13  0.14344060D-13  0.13718634D-01  0.10876381D-01
  0.47370012D-02 -0.24961711D-16  0.19751989D-14  0.17979117D-03  0.25790376D-03
  0.25790376D-03 -0.51580753D-03  0.22827353D-15 -0.24834295D-15 -0.36117306D-14
 -0.55859047D+00 -0.10027772D+01 -0.14503262D+01 -0.14018729D+01 -0.54706336D+00
 -0.67527997D-02  0.23559485D-02  0.84717799D-16  0.66169069D-16  0.33066007D-16
 -0.56416014D-15 -0.44063882D-15 -0.22019603D-15 -0.49399463D-02 -0.38583586D-02
 -0.19280990D-02 -0.13748139D-16 -0.13308453D-15 -0.16273240D-03  0.37165821D-03
  0.37165821D-03 -0.74331643D-03 -0.84141294D-16 -0.96249726D-17 -0.18489196D-14
  0.79445720D-03  0.13477486D-02  0.15343409D-02 -0.57333655D-03  0.89040765D-16
  0.44229756D-03 -0.19317612D-03  0.79445720D-03  0.13477486D-02  0.15343409D-02
 -0.57333655D-03 -0.38304093D-03 -0.22114878D-03 -0.19317612D-03  0.79445720D-03
  0.13477486D-02  0.15343409D-02 -0.57333655D-03  0.38304093D-03 -0.22114878D-03
 -0.19317612D-03
MO    3     MO 0.0        OCC NO =    2.0000075  ORB. ENERGY =    0.000000
 -0.19232584D+00 -0.34595991D+00 -0.50433082D+00 -0.49391904D+00 -0.19424801D+00
 -0.25503858D-02 -0.52325614D-03  0.27772414D-15  0.22019871D-15  0.10535021D-15
 -0.34249167D-13 -0.27155084D-13 -0.12991874D-13  0.22358193D-02  0.17727106D-02
  0.84812230D-03 -0.50352780D-17 -0.17871754D-14 -0.13427564D-02 -0.93884638D-03
 -0.93884638D-03  0.18776928D-02 -0.11687142D-15  0.32625430D-15  0.60247438D-14
 -0.11812847D+01 -0.21300534D+01 -0.31348610D+01 -0.31180402D+01 -0.12363391D+01
 -0.13340201D-01  0.83734285D-02 -0.32788509D-16 -0.25995322D-16 -0.11321769D-16
  0.21328742D-13  0.16909811D-13  0.73647474D-14  0.17744520D-01  0.14068176D-01
  0.61271269D-02  0.10183629D-17  0.30140645D-14 -0.10666979D-02  0.87885057D-03
  0.87885057D-03 -0.17577011D-02  0.14642472D-15  0.49605971D-15  0.37636975D-14
  0.15426044D+00  0.27692711D+00  0.40052232D+00  0.38714145D+00  0.15107711D+00
  0.88123243D-03 -0.51456070D-03  0.52713810D-16  0.41172266D-16  0.20574605D-16
 -0.54522262D-13 -0.42584761D-13 -0.21280457D-13  0.11327383D-02  0.88472838D-03
  0.44211646D-03  0.20275874D-17 -0.20295360D-14  0.55520240D-06 -0.16074741D-03
 -0.16074741D-03  0.32149482D-03 -0.37799107D-16  0.53009956D-16 -0.11522241D-14
 -0.22051830D-03 -0.37409597D-03 -0.42588857D-03  0.41569304D-05  0.69594565D-16
 -0.24125853D-03 -0.20718289D-03 -0.22051830D-03 -0.37409597D-03 -0.42588857D-03
  0.41569304D-05  0.20893602D-03  0.12062927D-03 -0.20718289D-03 -0.22051830D-03
 -0.37409597D-03 -0.42588857D-03  0.41569304D-05 -0.20893602D-03  0.12062927D-03
 -0.20718289D-03
MO    4     MO 0.0        OCC NO =    1.9843842  ORB. ENERGY =    0.000000
 -0.90307081D-01 -0.16244634D+00 -0.23680980D+00 -0.23192092D+00 -0.91209642D-01
  0.79072152D-01  0.28744939D-02 -0.69735974D-16 -0.55291454D-16 -0.26453226D-16
 -0.15609188D-12 -0.12376033D-12 -0.59210959D-13  0.14868781D+00  0.11788987D+00
  0.56402341D-01 -0.77257006D-17 -0.94031586D-14  0.33015271D-02 -0.15366205D-01
 -0.15366205D-01  0.30732409D-01  0.23521973D-15 -0.48820960D-15 -0.52303074D-13
 -0.34287855D+00 -0.61826724D+00 -0.90992171D+00 -0.90503931D+00 -0.35885858D+00
  0.35710578D+00  0.82346864D-01 -0.84073490D-15 -0.66654980D-15 -0.29030311D-15
 -0.96597035D-12 -0.76583873D-12 -0.33354652D-12  0.62592948D-02  0.49624819D-02
  0.21613148D-02  0.35621136D-16 -0.50004892D-13  0.18001182D-01 -0.10827990D-01
 -0.10827990D-01  0.21655980D-01  0.12652383D-14 -0.63052347D-15  0.61887371D-13
 -0.10807484D-01 -0.19401510D-01 -0.28060588D-01 -0.27123124D-01 -0.10584460D-01
  0.10885606D-01  0.29283777D-02  0.41192736D-16  0.32173699D-16  0.16077841D-16
  0.10457599D-12  0.81679361D-13  0.40816810D-13  0.20041434D-01  0.15653417D-01
  0.78223256D-02 -0.14273417D-16  0.35926096D-14  0.80840113D-03 -0.98622081D-03
 -0.98622081D-03  0.19724416D-02 -0.23553184D-16  0.23362324D-17 -0.17294235D-13
  0.12912869D-02  0.21905902D-02  0.24938717D-02 -0.50360023D-03 -0.58358280D-16
 -0.11212961D-02  0.10043596D-02  0.12912869D-02  0.21905902D-02  0.24938717D-02
 -0.50360023D-03  0.97107088D-03  0.56064804D-03  0.10043596D-02  0.12912869D-02
  0.21905902D-02  0.24938717D-02 -0.50360023D-03 -0.97107088D-03  0.56064804D-03
  0.10043596D-02
MO    5     MO 0.0        OCC NO =    1.9727217  ORB. ENERGY =    0.000000
 -0.10563968D+00 -0.19002696D+00 -0.27701607D+00 -0.27129714D+00 -0.10669548D+00
  0.10984093D+00  0.90866958D-02 -0.30864739D-15 -0.24471678D-15 -0.11708045D-15
  0.16154836D-11  0.12808660D-11  0.61280787D-12 -0.12118113D+00 -0.96080698D-01
 -0.45968124D-01  0.43412788D-16  0.77622243D-13 -0.54849963D-02 -0.79417009D-02
 -0.79417009D-02  0.15883402D-01 -0.29135464D-15  0.26147246D-15  0.94312827D-14
  0.71397707D-01  0.12874198D+00  0.18947328D+00  0.18845662D+00  0.74725233D-01
 -0.82392102D-01 -0.31464955D-01 -0.93428061D-15 -0.74071453D-15 -0.32260415D-15
  0.23374145D-11  0.18531444D-11  0.80710185D-12 -0.52380246D+00 -0.41528004D+00
 -0.18086734D+00 -0.33859555D-16  0.78737554D-13 -0.23491662D-01 -0.89176764D-02
 -0.89176764D-02  0.17835353D-01  0.39748667D-15  0.24151546D-14 -0.28160202D-12
 -0.11442769D+00 -0.20541968D+00 -0.29710045D+00 -0.28717475D+00 -0.11206635D+00
  0.88636063D-01  0.10572401D-01 -0.52796905D-15 -0.41237167D-15 -0.20607037D-15
  0.17055192D-11  0.13321005D-11  0.66567724D-12  0.95030082D-02  0.74223505D-02
  0.37090970D-02 -0.67870901D-16  0.53041190D-13 -0.69600674D-03 -0.17961808D-02
 -0.17961808D-02  0.35923615D-02  0.82820313D-16 -0.26089141D-15  0.69197470D-13
  0.27100937D-01  0.45975102D-01  0.52340235D-01  0.75035163D-02 -0.44044579D-15
 -0.17839858D-01  0.53256895D-02  0.27100937D-01  0.45975102D-01  0.52340235D-01
  0.75035163D-02  0.15449770D-01  0.89199291D-02  0.53256895D-02  0.27100937D-01
  0.45975102D-01  0.52340235D-01  0.75035163D-02 -0.15449770D-01  0.89199291D-02
  0.53256895D-02
MO    6     MO 0.0        OCC NO =    1.9697298  ORB. ENERGY =    0.000000
  0.88098188D-01  0.15847294D+00  0.23101748D+00  0.22624818D+00  0.88978672D-01
 -0.89769016D-01  0.62550283D-02 -0.46167949D-15 -0.36605110D-15 -0.17513073D-15
  0.37533921D-12  0.29759462D-12  0.14237892D-12 -0.47264132D+00 -0.37474239D+00
 -0.17928892D+00 -0.53352119D-16  0.37927293D-13 -0.96475343D-03  0.13114656D-01
  0.13114656D-01 -0.26229312D-01  0.58059655D-15  0.47797676D-15 -0.54920686D-12
 -0.36933851D-01 -0.66597897D-01 -0.98014044D-01 -0.97488127D-01 -0.38655172D-01
  0.55210163D-01  0.54353635D-01 -0.11219932D-14 -0.88953648D-15 -0.38742073D-15
 -0.58517365D-11 -0.46393623D-11 -0.20205862D-11  0.17662189D+01  0.14002903D+01
  0.60986984D+00 -0.39553699D-17 -0.40696519D-12  0.69938783D-01  0.33103630D-01
  0.33103630D-01 -0.66207260D-01  0.48611211D-15  0.43811556D-15  0.22657941D-12
 -0.47179715D-01 -0.84696650D-01 -0.12249757D+00 -0.11840511D+00 -0.46206111D-01
  0.40404919D-01  0.23048904D-02 -0.21453051D-15 -0.16755964D-15 -0.83732902D-16
  0.27338923D-11  0.21353141D-11  0.10670591D-11  0.17231297D-01  0.13458552D-01
  0.67255076D-02 -0.83813638D-17  0.95924762D-13 -0.21392326D-03 -0.19895474D-03
 -0.19895473D-03  0.39790947D-03 -0.36595642D-15  0.32845201D-15  0.36241950D-13
  0.10244744D-01  0.17379590D-01  0.19785748D-01  0.31224048D-02  0.30323191D-15
 -0.66127739D-02  0.25702372D-02  0.10244744D-01  0.17379590D-01  0.19785748D-01
  0.31224048D-02  0.57268302D-02  0.33063869D-02  0.25702372D-02  0.10244744D-01
  0.17379590D-01  0.19785748D-01  0.31224048D-02 -0.57268302D-02  0.33063869D-02
  0.25702372D-02
MO    7     MO 0.0        OCC NO =    1.9554908  ORB. ENERGY =    0.000000
  0.10389235D-10  0.18688382D-10  0.27243409D-10  0.26680975D-10  0.10493069D-10
 -0.11309187D-10 -0.36519969D-11  0.10852664D-13  0.86047345D-14  0.41167843D-14
  0.27845108D+00  0.22077507D+00  0.10562596D+00  0.41049254D-10  0.32546658D-10
  0.15571378D-10  0.47246773D-15  0.13945030D-01  0.87188154D-12 -0.24956319D-02
  0.24956319D-02  0.74366389D-12  0.37492572D-15  0.28028245D-14 -0.43915995D-02
 -0.51041616D-11 -0.92036551D-11 -0.13545284D-10 -0.13472604D-10 -0.53420436D-11
  0.52045378D-11  0.12948841D-11  0.43298152D-13  0.34327556D-13  0.14950715D-13
  0.36625144D+00  0.29037075D+00  0.12646547D+00 -0.32376440D-10 -0.25668626D-10
 -0.11179483D-10  0.22554781D-14  0.10723294D-01 -0.13043987D-11  0.35965345D-04
 -0.35965346D-04  0.84028202D-12  0.88783772D-15 -0.17536121D-14 -0.43780624D-01
 -0.82207650D-12 -0.14757852D-11 -0.21344422D-11 -0.20631336D-11 -0.80511207D-12
  0.10385000D-11  0.94284593D-12  0.66531968D-15  0.51964976D-15  0.25967938D-15
  0.26895869D+00  0.21007092D+00  0.10497664D+00 -0.17629231D-10 -0.13769359D-10
 -0.68808241D-11  0.33953106D-16  0.88144957D-02 -0.25391473D-12 -0.90687384D-02
  0.90687384D-02 -0.14958118D-11 -0.32401964D-15  0.60246378D-16  0.82879816D-02
  0.52786757D-01  0.89549543D-01  0.10194744D+00  0.26021174D-01  0.16390688D-15
 -0.11891216D-01  0.74662890D-02 -0.26393378D-01 -0.44774771D-01 -0.50973721D-01
 -0.13010587D-01 -0.82659236D-02  0.24257839D-02 -0.37331445D-02 -0.26393378D-01
 -0.44774771D-01 -0.50973721D-01 -0.13010587D-01  0.82659236D-02  0.24257839D-02
 -0.37331445D-02
MO    8     MO 0.0        OCC NO =    1.9554908  ORB. ENERGY =    0.000000
  0.39580291D-15  0.71197888D-15  0.10379032D-14  0.10164760D-14  0.39975870D-15
 -0.19808931D-15 -0.60856848D-15  0.27845108D+00  0.22077507D+00  0.10562596D+00
  0.16715659D-15  0.13253318D-15  0.63408176D-16  0.51652208D-15  0.40953406D-15
  0.19593439D-15  0.13945030D-01  0.99475357D-17  0.11791543D-15  0.67661028D-16
 -0.30642360D-16 -0.37018669D-16 -0.49912639D-02 -0.43915995D-02  0.81658487D-15
 -0.39560212D-16 -0.71333664D-16 -0.10498381D-15 -0.10442049D-15 -0.41403936D-16
  0.68540572D-16  0.16084654D-15  0.36625144D+00  0.29037075D+00  0.12646547D+00
  0.10010611D-13  0.79365928D-14  0.34566323D-14  0.30488700D-15  0.24171992D-15
  0.10527652D-15  0.10723294D-01  0.63358654D-15 -0.30717128D-16 -0.47099660D-17
  0.36360518D-17  0.10739143D-17  0.71930692D-04 -0.43780624D-01 -0.45131859D-15
 -0.43357096D-15 -0.77834316D-15 -0.11257251D-14 -0.10881163D-14 -0.42462376D-15
  0.23573053D-15  0.82383886D-15  0.26895869D+00  0.21007092D+00  0.10497664D+00
 -0.33744619D-14 -0.26356327D-14 -0.13170784D-14 -0.58836597D-15 -0.45954485D-15
 -0.22964375D-15  0.88144957D-02 -0.20001708D-15  0.41279706D-16  0.13239081D-15
 -0.55172748D-16 -0.77218066D-16 -0.18137477D-01  0.82879816D-02  0.67407943D-17
 -0.52199612D-15 -0.88553487D-15 -0.10081349D-14 -0.44218377D-15  0.71981172D-02
  0.74917070D-16 -0.12981035D-15 -0.45714672D-01 -0.77552179D-01 -0.88289074D-01
 -0.22534998D-01 -0.71188826D-02 -0.82659236D-02 -0.64659959D-02  0.45714672D-01
  0.77552179D-01  0.88289074D-01  0.22534998D-01 -0.71188826D-02  0.82659236D-02
  0.64659959D-02
MO    9     MO 0.0        OCC NO =    1.9528504  ORB. ENERGY =    0.000000
  0.13227876D+00  0.23794591D+00  0.34687100D+00  0.33970993D+00  0.13360080D+00
 -0.14581383D+00 -0.42201000D-01  0.47359616D-15  0.37549945D-15  0.17965113D-15
 -0.21258760D-10 -0.16855400D-10 -0.80641704D-11  0.46316285D+00  0.36722721D+00
  0.17569342D+00  0.11340318D-16 -0.10606106D-11  0.79681425D-02 -0.45287338D-02
 -0.45287338D-02  0.90574676D-02  0.62374783D-15  0.10501640D-14  0.38838772D-12
 -0.60234064D-01 -0.10861207D+00 -0.15984751D+00 -0.15898981D+00 -0.63041303D-01
  0.64866470D-01  0.22338204D-01  0.43977381D-14  0.34866061D-14  0.15185251D-14
 -0.26912547D-10 -0.21336753D-10 -0.92928178D-11 -0.27142169D+00 -0.21518801D+00
 -0.93721053D-01  0.33401371D-15 -0.76179017D-12 -0.11658086D-01 -0.24580336D-02
 -0.24580336D-02  0.49160671D-02  0.95983902D-15 -0.18737112D-15  0.33124342D-11
 -0.24864521D-01 -0.44636591D-01 -0.64558328D-01 -0.62401527D-01 -0.24351415D-01
  0.22873818D-01  0.10547161D-01 -0.10236713D-14 -0.79954126D-15 -0.39954676D-15
 -0.21405858D-10 -0.16719104D-10 -0.83548706D-11 -0.23363630D+00 -0.18248227D+00
 -0.91190042D-01 -0.60462360D-16 -0.69400146D-12 -0.38974831D-02  0.98162613D-02
  0.98162613D-02 -0.19632523D-01 -0.33678942D-15  0.28370767D-15 -0.56827824D-12
  0.24535667D-01  0.41623276D-01  0.47385909D-01  0.11143424D-01  0.36362516D-15
 -0.82433657D-02 -0.28289183D-02  0.24535667D-01  0.41623276D-01  0.47385909D-01
  0.11143424D-01  0.71389641D-02  0.41216828D-02 -0.28289183D-02  0.24535667D-01
  0.41623276D-01  0.47385909D-01  0.11143424D-01 -0.71389641D-02  0.41216828D-02
 -0.28289183D-02
MO   10     MO 0.0        OCC NO =    1.9475099  ORB. ENERGY =    0.000000
  0.22661720D-12  0.40764394D-12  0.59425212D-12  0.58198393D-12  0.22888209D-12
 -0.28811854D-12  0.11561427D-12 -0.68686766D-14 -0.54459569D-14 -0.26055226D-14
  0.37717187D+00  0.29904767D+00  0.14307411D+00 -0.27375874D-11 -0.21705467D-11
 -0.10384600D-11 -0.26146530D-15  0.14103474D-01 -0.47395911D-13  0.11427262D-02
 -0.11427262D-02 -0.11465117D-12 -0.12089171D-15 -0.13453868D-14  0.10055475D+00
 -0.22097562D-12 -0.39845591D-12 -0.58641904D-12 -0.58327247D-12 -0.23127430D-12
  0.37835363D-12  0.33378340D-12 -0.24959544D-13 -0.19788377D-13 -0.86184517D-14
  0.17766324D+01  0.14085462D+01  0.61346557D+00  0.90614015D-11  0.71840427D-11
  0.31288734D-11 -0.14400400D-14  0.99405513D-01  0.35535283D-12  0.36968657D-04
 -0.36968656D-04 -0.32378637D-12 -0.56995618D-15  0.15930882D-14 -0.11474300D+00
 -0.22539707D-12 -0.40463104D-12 -0.58522173D-12 -0.56567031D-12 -0.22074576D-12
  0.17730338D-12 -0.37487105D-13 -0.81040631D-15 -0.63297007D-15 -0.31630780D-15
 -0.97331927D-01 -0.76021367D-01 -0.37989398D-01  0.25551183D-12  0.19956821D-12
  0.99728226D-13 -0.25244028D-16 -0.48977216D-02 -0.70779197D-14  0.34129147D-02
 -0.34129147D-02  0.21072727D-13  0.17038371D-15 -0.29768210D-15  0.39135720D-02
 -0.21796559D-01 -0.36976546D-01 -0.42095852D-01 -0.11506455D-01 -0.24411050D-15
  0.45215930D-02 -0.37609080D-02  0.10898280D-01  0.18488273D-01  0.21047926D-01
  0.57532274D-02  0.30692424D-02 -0.79449089D-03  0.18804540D-02  0.10898280D-01
  0.18488273D-01  0.21047926D-01  0.57532274D-02 -0.30692424D-02 -0.79449089D-03
  0.18804540D-02
MO   11     MO 0.0        OCC NO =    1.9475099  ORB. ENERGY =    0.000000
 -0.49583887D-15 -0.89192574D-15 -0.13002248D-14 -0.12733820D-14 -0.50079446D-15
  0.45077639D-15  0.31255850D-15  0.37717187D+00  0.29904767D+00  0.14307411D+00
 -0.13311583D-14 -0.10554334D-14 -0.50495360D-15 -0.16627253D-14 -0.13183225D-14
 -0.63072825D-15  0.14103474D-01 -0.14933289D-15 -0.60924398D-16  0.70648696D-16
 -0.56293588D-16 -0.14355108D-16  0.22854524D-02  0.10055475D+00  0.13745069D-14
  0.26788232D-15  0.48303653D-15  0.71089877D-15  0.70708428D-15  0.28036711D-15
 -0.98787427D-16 -0.69724532D-16  0.17766324D+01  0.14085462D+01  0.61346557D+00
  0.14623886D-13  0.11594081D-13  0.50495817D-14  0.14391152D-14  0.11409565D-14
  0.49692196D-15  0.99405513D-01  0.10538494D-14  0.76743970D-16  0.19183358D-16
  0.19129134D-16 -0.38312492D-16  0.73937313D-04 -0.11474300D+00 -0.51134549D-15
  0.65662310D-16  0.11787646D-15  0.17048584D-15  0.16479016D-15  0.64307298D-16
 -0.63371490D-16 -0.27961805D-15 -0.97331927D-01 -0.76021367D-01 -0.37989398D-01
 -0.72108995D-14 -0.56320928D-14 -0.28144694D-14  0.81203632D-15  0.63424319D-15
  0.31694401D-15 -0.48977216D-02 -0.22227190D-15 -0.36999520D-17  0.21151271D-15
 -0.28974117D-15  0.78228463D-16  0.68258293D-02  0.39135720D-02 -0.15617449D-15
 -0.15471206D-14 -0.26245967D-14 -0.29879652D-14 -0.74111677D-15 -0.25665188D-02
  0.37048345D-15 -0.19467707D-15  0.18876374D-01  0.32022628D-01  0.36456077D-01
  0.99648821D-02  0.27495650D-02  0.30692424D-02  0.32570419D-02 -0.18876374D-01
 -0.32022628D-01 -0.36456077D-01 -0.99648821D-02  0.27495650D-02 -0.30692424D-02
 -0.32570419D-02
MO   12     MO 0.0        OCC NO =    0.0541393  ORB. ENERGY =    0.000000
  0.60162293D-16  0.10822124D-15  0.15776195D-15  0.15450499D-15  0.60763577D-16
  0.32273112D-16 -0.15345779D-15 -0.85260747D+00 -0.67600556D+00 -0.32342300D+00
  0.28082389D-13  0.22265640D-13  0.10652605D-13  0.12751799D-15  0.10110499D-15
  0.48371908D-16 -0.34548690D-01  0.11669673D-14  0.37184949D-16  0.58201540D-16
 -0.79599991D-16  0.21398451D-16 -0.39635331D-02  0.10933433D-01 -0.27349591D-15
 -0.13396666D-15 -0.24156424D-15 -0.35551704D-15 -0.35360943D-15 -0.14021024D-15
 -0.91886527D-17  0.25358556D-16  0.20359900D+01  0.16141696D+01  0.70302092D+00
 -0.67232576D-13 -0.53303199D-13 -0.23215196D-13  0.38078762D-17  0.30189530D-17
  0.13148477D-17  0.98543396D-02 -0.36763640D-15 -0.15539595D-16  0.64487249D-16
  0.10090278D-15 -0.16539003D-15  0.10787542D-02  0.16310661D+00 -0.53671798D-14
 -0.54318934D-16 -0.97512919D-16 -0.14103386D-15 -0.13632213D-15 -0.53198004D-16
 -0.56720657D-16  0.21301340D-15  0.34679495D-02  0.27086514D-02  0.13535673D-02
 -0.16957157D-15 -0.13244434D-15 -0.66185084D-16  0.44354453D-16  0.34643167D-16
  0.17311883D-16  0.82254309D-03 -0.58160788D-16  0.23663822D-16  0.20283563D-15
 -0.23255341D-15  0.29717773D-16 -0.16308359D-01 -0.59678174D-01  0.20373969D-14
 -0.12801117D-14 -0.21716321D-14 -0.24722888D-14 -0.11872254D-15 -0.11366695D-02
  0.53143945D-15  0.31350847D-16 -0.34000093D-01 -0.57679103D-01 -0.65664623D-01
 -0.27789658D-02 -0.13629119D-01 -0.72125192D-02  0.23689954D-02  0.34000093D-01
  0.57679103D-01  0.65664623D-01  0.27789658D-02 -0.13629119D-01  0.72125192D-02
 -0.23689954D-02
MO   13     MO 0.0        OCC NO =    0.0541393  ORB. ENERGY =    0.000000
 -0.17732234D-12 -0.31897129D-12 -0.46498756D-12 -0.45538800D-12 -0.17909457D-12
  0.58390165D-12 -0.54822525D-12 -0.31339202D-13 -0.24847864D-13 -0.11888025D-13
 -0.85260747D+00 -0.67600556D+00 -0.32342300D+00 -0.34480439D-11 -0.27338453D-11
 -0.13079603D-11 -0.44639050D-15 -0.34548690D-01  0.17421231D-12 -0.19817666D-02
  0.19817666D-02  0.83805924D-12  0.60254476D-14  0.15726150D-14  0.10933433D-01
 -0.56912053D-12 -0.10262193D-11 -0.15103165D-11 -0.15022125D-11 -0.59564468D-12
  0.10175108D-11 -0.84565355D-13  0.69094470D-13  0.54779343D-13  0.23858103D-13
  0.20359900D+01  0.16141696D+01  0.70302092D+00 -0.20622748D-11 -0.16350087D-11
 -0.71209699D-12 -0.43604923D-15  0.98543396D-02 -0.20875280D-12  0.53937708D-03
 -0.53937708D-03 -0.45504646D-12 -0.45126655D-14  0.81658245D-14  0.16310661D+00
 -0.29931340D-12 -0.53732505D-12 -0.77713834D-12 -0.75117526D-12 -0.29313675D-12
  0.72986582D-12  0.31841717D-12 -0.23513116D-15 -0.18364983D-15 -0.91773495D-16
  0.34679495D-02  0.27086514D-02  0.13535673D-02 -0.14487382D-11 -0.11315409D-11
 -0.56545364D-12  0.25601905D-15  0.82254309D-03 -0.48396254D-13 -0.81541794D-02
  0.81541794D-02  0.28015927D-12 -0.26599949D-14 -0.20471249D-14 -0.59678174D-01
  0.39259926D-01  0.66602091D-01  0.75822976D-01  0.32088733D-02 -0.36789893D-15
 -0.17793269D-01 -0.27354803D-02 -0.19629963D-01 -0.33301046D-01 -0.37911488D-01
 -0.16044367D-02 -0.72125192D-02 -0.53008194D-02  0.13677401D-02 -0.19629963D-01
 -0.33301046D-01 -0.37911488D-01 -0.16044367D-02  0.72125192D-02 -0.53008194D-02
  0.13677401D-02
MO   14     MO 0.0        OCC NO =    0.0239150  ORB. ENERGY =    0.000000
  0.20104971D+00  0.36165259D+00  0.52720719D+00  0.51632313D+00  0.20305907D+00
 -0.33752272D+00 -0.45986517D-02  0.19242551D-14  0.15256812D-14  0.72993538D-15
 -0.66900191D-11 -0.53043050D-11 -0.25377517D-11 -0.52217356D+00 -0.41401494D+00
 -0.19807818D+00 -0.48872473D-16 -0.30374291D-12 -0.55726646D-02 -0.26512933D-01
 -0.26512933D-01  0.53025866D-01 -0.14803248D-13  0.28529131D-14 -0.37652504D-11
 -0.15582729D+00 -0.28098261D+00 -0.41353020D+00 -0.41131131D+00 -0.16308970D+00
  0.26726370D+00  0.41106567D-01  0.42192490D-14  0.33450967D-14  0.14568934D-14
  0.12900298D-10  0.10227589D-10  0.44544322D-11 -0.23610574D+01 -0.18718889D+01
 -0.81526567D+00 -0.69083835D-15 -0.31767690D-12  0.93048805D-02  0.47680499D-01
  0.47680499D-01 -0.95360998D-01  0.29951093D-13 -0.34480767D-14  0.31836197D-11
 -0.49480633D-01 -0.88827241D-01 -0.12847168D+00 -0.12417963D+00 -0.48459548D-01
  0.71832840D-01 -0.15661353D-01  0.26594494D-15  0.20771702D-15  0.10380035D-15
  0.18877909D-10  0.14744642D-10  0.73681926D-11  0.35291586D+00  0.27564590D+00
  0.13774577D+00 -0.12969101D-15  0.50546802D-12  0.55941164D-02 -0.53700413D-02
 -0.53700413D-02  0.10740083D-01 -0.12987711D-14  0.95737715D-15 -0.23274292D-11
 -0.23003232D-04 -0.39023592D-04 -0.44426306D-04  0.50864864D-02 -0.75419314D-15
  0.31718564D-02  0.31234304D-01 -0.23003224D-04 -0.39023580D-04 -0.44426292D-04
  0.50864864D-02 -0.27469082D-02 -0.15859282D-02  0.31234304D-01 -0.23003224D-04
 -0.39023580D-04 -0.44426292D-04  0.50864864D-02  0.27469082D-02 -0.15859282D-02
  0.31234304D-01
MO   15     MO 0.0        OCC NO =    0.0185895  ORB. ENERGY =    0.000000
  0.11176806D-13  0.20105082D-13  0.29308634D-13  0.28703565D-13  0.11288511D-13
 -0.37569116D-13  0.16536088D-13 -0.21738258D+00 -0.17235579D+00 -0.82460604D-01
 -0.33364407D-04 -0.26453586D-04 -0.12656254D-04  0.27073503D-12  0.21465727D-12
  0.10269900D-12 -0.14819343D-01 -0.22745087D-05 -0.20317898D-13  0.29107007D-05
 -0.29107007D-05 -0.10949816D-13  0.37928780D-01 -0.19715760D+00 -0.30260228D-04
  0.23664167D-13  0.42670443D-13  0.62799319D-13  0.62462355D-13  0.24767048D-13
 -0.49524068D-13  0.17083828D-13  0.66039527D+00  0.52357329D+00  0.22803241D+00
  0.10135907D-03  0.80359301D-04  0.34998968D-04  0.31301848D-12  0.24816670D-12
  0.10808430D-12 -0.22715830D-01 -0.34864808D-05 -0.35129940D-14 -0.12155596D-06
  0.12155593D-06  0.37675128D-13 -0.15839721D-02  0.16115141D+00  0.24733911D-04
  0.38791622D-13  0.69638412D-13  0.10071870D-12  0.97353833D-13  0.37991116D-13
 -0.84985050D-13 -0.11771351D-13  0.63735816D+00  0.49781033D+00  0.24876578D+00
  0.97823280D-04  0.76405141D-04  0.38181177D-04  0.16083948D-12  0.12562411D-12
  0.62776881D-13  0.29368001D-01  0.45074722D-05  0.34839036D-14  0.76209004D-05
 -0.76209003D-05 -0.12704913D-13  0.99306484D-01  0.42479697D-01  0.65198873D-05
 -0.15527067D-04 -0.26340731D-04 -0.29987536D-04 -0.89786390D-05  0.75124690D-01
 -0.75921855D-05  0.29591655D-05  0.87619319D-01  0.14864088D+00  0.16921982D+00
  0.50666506D-01 -0.18326723D-01 -0.53942668D-01 -0.16698586D-01 -0.87603792D-01
 -0.14861454D+00 -0.16918983D+00 -0.50657527D-01 -0.18310162D-01  0.53956167D-01
  0.16695626D-01
MO   16     MO 0.0        OCC NO =    0.0185895  ORB. ENERGY =    0.000000
 -0.85753806D-10 -0.15425581D-09 -0.22486988D-09 -0.22022749D-09 -0.86610860D-10
  0.28729180D-09 -0.12450085D-09 -0.33364407D-04 -0.26453586D-04 -0.12656254D-04
  0.21738258D+00  0.17235579D+00  0.82460604D-01 -0.20691458D-08 -0.16405604D-08
 -0.78489736D-09 -0.22745087D-05  0.14819343D-01  0.15516213D-09 -0.18964390D-01
  0.18964390D-01  0.84541580D-10  0.58214015D-05 -0.30260228D-04  0.19715760D+00
 -0.18060774D-09 -0.32566590D-09 -0.47929189D-09 -0.47672013D-09 -0.18902506D-09
  0.37866991D-09 -0.13158145D-09  0.10135907D-03  0.80359301D-04  0.34998968D-04
 -0.66039527D+00 -0.52357329D+00 -0.22803241D+00 -0.23868097D-08 -0.18923058D-08
 -0.82415788D-09 -0.34864808D-05  0.22715830D-01  0.27009148D-10  0.79198619D-03
 -0.79198590D-03 -0.28601859D-09 -0.24311187D-06  0.24733911D-04 -0.16115141D+00
 -0.29820818D-09 -0.53534095D-09 -0.77426872D-09 -0.74840152D-09 -0.29205433D-09
  0.65352637D-09  0.88289641D-10  0.97823280D-04  0.76405141D-04  0.38181177D-04
 -0.63735816D+00 -0.49781033D+00 -0.24876578D+00 -0.12344020D-08 -0.96413307D-09
 -0.48179658D-09  0.45074722D-05 -0.29368001D-01 -0.27004472D-10 -0.49653242D-01
  0.49653242D-01  0.95804029D-10  0.15241801D-04  0.65198873D-05 -0.42479698D-01
  0.10116511D+00  0.17162050D+00  0.19538090D+00  0.58499457D-01  0.11530320D-04
  0.49466153D-01 -0.19280158D-01 -0.50569109D-01 -0.85787437D-01 -0.97664482D-01
 -0.29241953D-01  0.53946606D-01 -0.43985259D-01  0.96375158D-02 -0.50596002D-01
 -0.85833060D-01 -0.97716422D-01 -0.29257505D-01 -0.53952229D-01 -0.43968699D-01
  0.96426412D-02
MO   17     MO 0.0        OCC NO =    0.0184914  ORB. ENERGY =    0.000000
 -0.30260047D-01 -0.54432431D-01 -0.79350099D-01 -0.77711936D-01 -0.30562477D-01
  0.99854796D-01 -0.43112869D-01  0.15028047D-13  0.11915264D-13  0.57006490D-14
 -0.62666270D-09 -0.49686108D-09 -0.23771447D-09 -0.69542463D+00 -0.55138025D+00
 -0.26379821D+00  0.60928002D-15 -0.43484306D-10  0.54005718D-01 -0.13668659D-01
 -0.13668659D-01  0.27337317D-01  0.60453642D-14  0.10488982D-13 -0.57768902D-09
 -0.59713424D-01 -0.10767327D+00 -0.15846585D+00 -0.15761556D+00 -0.62496398D-01