 hf/6-31g(d) opted                                       
GAUSSIAN             24 MOL ORBITALS    160 PRIMITIVES        4 NUCLEI
  C    1    (CENTRE  1)   0.00000000  0.00000000  0.91418565  CHARGE =  6.0
  Cl   2    (CENTRE  2)   0.00000000  2.73561668 -0.89193333  CHARGE = 17.0
  Cl   3    (CENTRE  3)   0.00000000 -2.73561668 -0.89193333  CHARGE = 17.0
  O    4    (CENTRE  4)   0.00000000  0.00000000  3.10507743  CHARGE =  8.0
CENTRE ASSIGNMENTS    1  1  1  1  1  1  1  1  1  1  1  1  1  1  1  1  1  1  1  1
CENTRE ASSIGNMENTS    1  1  1  1  1  1  1  1  2  2  2  2  2  2  2  2  2  2  2  2
CENTRE ASSIGNMENTS    2  2  2  2  2  2  2  2  2  2  2  2  2  2  2  2  2  2  2  2
CENTRE ASSIGNMENTS    2  2  2  2  2  2  2  2  2  2  2  2  2  2  2  2  2  2  2  2
CENTRE ASSIGNMENTS    3  3  3  3  3  3  3  3  3  3  3  3  3  3  3  3  3  3  3  3
CENTRE ASSIGNMENTS    3  3  3  3  3  3  3  3  3  3  3  3  3  3  3  3  3  3  3  3
CENTRE ASSIGNMENTS    3  3  3  3  3  3  3  3  3  3  3  3  4  4  4  4  4  4  4  4
CENTRE ASSIGNMENTS    4  4  4  4  4  4  4  4  4  4  4  4  4  4  4  4  4  4  4  4
TYPE ASSIGNMENTS      1  1  1  1  1  1  1  1  1  2  2  2  3  3  3  4  4  4  1  2
TYPE ASSIGNMENTS      3  4  5  6  7  8  9 10  1  1  1  1  1  1  1  1  1  1  1  1
TYPE ASSIGNMENTS      2  2  2  2  2  2  3  3  3  3  3  3  4  4  4  4  4  4  1  1
TYPE ASSIGNMENTS      1  2  2  2  3  3  3  4  4  4  1  2  3  4  5  6  7  8  9 10
TYPE ASSIGNMENTS      1  1  1  1  1  1  1  1  1  1  1  1  2  2  2  2  2  2  3  3
TYPE ASSIGNMENTS      3  3  3  3  4  4  4  4  4  4  1  1  1  2  2  2  3  3  3  4
TYPE ASSIGNMENTS      4  4  1  2  3  4  5  6  7  8  9 10  1  1  1  1  1  1  1  1
TYPE ASSIGNMENTS      1  2  2  2  3  3  3  4  4  4  1  2  3  4  5  6  7  8  9 10
EXPONENTS  0.3047525D+04 0.4573695D+03 0.1039487D+03 0.2921016D+02 0.9286663D+01
EXPONENTS  0.3163927D+01 0.7868272D+01 0.1881289D+01 0.5442493D+00 0.7868272D+01
EXPONENTS  0.1881289D+01 0.5442493D+00 0.7868272D+01 0.1881289D+01 0.5442493D+00
EXPONENTS  0.7868272D+01 0.1881289D+01 0.5442493D+00 0.1687145D+00 0.1687145D+00
EXPONENTS  0.1687145D+00 0.1687145D+00 0.8000000D+00 0.8000000D+00 0.8000000D+00
EXPONENTS  0.8000000D+00 0.8000000D+00 0.8000000D+00 0.2518010D+05 0.3780350D+04
EXPONENTS  0.8604740D+03 0.2421450D+03 0.7733490D+02 0.2624700D+02 0.4917650D+03
EXPONENTS  0.1169840D+03 0.3741530D+02 0.1378340D+02 0.5452150D+01 0.2225880D+01
EXPONENTS  0.4917650D+03 0.1169840D+03 0.3741530D+02 0.1378340D+02 0.5452150D+01
EXPONENTS  0.2225880D+01 0.4917650D+03 0.1169840D+03 0.3741530D+02 0.1378340D+02
EXPONENTS  0.5452150D+01 0.2225880D+01 0.4917650D+03 0.1169840D+03 0.3741530D+02
EXPONENTS  0.1378340D+02 0.5452150D+01 0.2225880D+01 0.3186490D+01 0.1144270D+01
EXPONENTS  0.4203770D+00 0.3186490D+01 0.1144270D+01 0.4203770D+00 0.3186490D+01
EXPONENTS  0.1144270D+01 0.4203770D+00 0.3186490D+01 0.1144270D+01 0.4203770D+00
EXPONENTS  0.1426570D+00 0.1426570D+00 0.1426570D+00 0.1426570D+00 0.7500000D+00
EXPONENTS  0.7500000D+00 0.7500000D+00 0.7500000D+00 0.7500000D+00 0.7500000D+00
EXPONENTS  0.2518010D+05 0.3780350D+04 0.8604740D+03 0.2421450D+03 0.7733490D+02
EXPONENTS  0.2624700D+02 0.4917650D+03 0.1169840D+03 0.3741530D+02 0.1378340D+02
EXPONENTS  0.5452150D+01 0.2225880D+01 0.4917650D+03 0.1169840D+03 0.3741530D+02
EXPONENTS  0.1378340D+02 0.5452150D+01 0.2225880D+01 0.4917650D+03 0.1169840D+03
EXPONENTS  0.3741530D+02 0.1378340D+02 0.5452150D+01 0.2225880D+01 0.4917650D+03
EXPONENTS  0.1169840D+03 0.3741530D+02 0.1378340D+02 0.5452150D+01 0.2225880D+01
EXPONENTS  0.3186490D+01 0.1144270D+01 0.4203770D+00 0.3186490D+01 0.1144270D+01
EXPONENTS  0.4203770D+00 0.3186490D+01 0.1144270D+01 0.4203770D+00 0.3186490D+01
EXPONENTS  0.1144270D+01 0.4203770D+00 0.1426570D+00 0.1426570D+00 0.1426570D+00
EXPONENTS  0.1426570D+00 0.7500000D+00 0.7500000D+00 0.7500000D+00 0.7500000D+00
EXPONENTS  0.7500000D+00 0.7500000D+00 0.5484672D+04 0.8252349D+03 0.1880470D+03
EXPONENTS  0.5296450D+02 0.1689757D+02 0.5799635D+01 0.1553962D+02 0.3599934D+01
EXPONENTS  0.1013762D+01 0.1553962D+02 0.3599934D+01 0.1013762D+01 0.1553962D+02
EXPONENTS  0.3599934D+01 0.1013762D+01 0.1553962D+02 0.3599934D+01 0.1013762D+01
EXPONENTS  0.2700058D+00 0.2700058D+00 0.2700058D+00 0.2700058D+00 0.8000000D+00
EXPONENTS  0.8000000D+00 0.8000000D+00 0.8000000D+00 0.8000000D+00 0.8000000D+00
MO    1     MO 0.0        OCC NO =    2.0000000  ORB. ENERGY = -104.873067
  0.00000000D+00  0.00000000D+00  0.00000000D+00  0.00000000D+00  0.00000000D+00
  0.00000000D+00  0.00000000D+00  0.00000000D+00  0.00000000D+00  0.00000000D+00
  0.00000000D+00  0.00000000D+00  0.98201597D-04  0.75294756D-04  0.37577360D-04
  0.00000000D+00  0.00000000D+00  0.00000000D+00  0.00000000D+00  0.00000000D+00
 -0.13113949D-05  0.00000000D+00  0.00000000D+00  0.00000000D+00  0.00000000D+00
  0.00000000D+00  0.00000000D+00  0.13099380D-03  0.18392925D+01  0.33965764D+01
  0.55108645D+01  0.73170694D+01  0.63235952D+01  0.19783786D+01 -0.17707166D-02
 -0.80634912D-02 -0.12564455D-01  0.23767483D-02  0.15520206D-01  0.62570230D-02
  0.00000000D+00  0.00000000D+00  0.00000000D+00  0.00000000D+00  0.00000000D+00
  0.00000000D+00 -0.42881414D-03 -0.54140071D-03 -0.55785112D-03 -0.40426757D-03
 -0.17537892D-03 -0.31820539D-04  0.26479257D-03  0.33431475D-03  0.34447287D-03
  0.24963508D-03  0.10829642D-03  0.19649172D-04  0.53833275D-02 -0.61075021D-03
 -0.49610420D-02  0.00000000D+00  0.00000000D+00  0.00000000D+00 -0.21899496D-05
  0.13775590D-04  0.90534143D-05  0.10648407D-05 -0.66982405D-05 -0.44021304D-05
  0.18258838D-03  0.00000000D+00 -0.10708029D-04  0.15233274D-05  0.44070248D-02
  0.44346767D-02  0.44069004D-02  0.00000000D+00  0.00000000D+00 -0.64274122D-05
 -0.18392925D+01 -0.33965764D+01 -0.55108645D+01 -0.73170694D+01 -0.63235952D+01
 -0.19783786D+01  0.17707166D-02  0.80634912D-02  0.12564455D-01 -0.23767483D-02
 -0.15520206D-01 -0.62570230D-02  0.00000000D+00  0.00000000D+00  0.00000000D+00
  0.00000000D+00  0.00000000D+00  0.00000000D+00 -0.42881414D-03 -0.54140071D-03
 -0.55785112D-03 -0.40426757D-03 -0.17537892D-03 -0.31820539D-04 -0.26479257D-03
 -0.33431475D-03 -0.34447287D-03 -0.24963508D-03 -0.10829642D-03 -0.19649172D-04
 -0.53833275D-02  0.61075021D-03  0.49610420D-02  0.00000000D+00  0.00000000D+00
  0.00000000D+00 -0.21899496D-05  0.13775590D-04  0.90534143D-05 -0.10648407D-05
  0.66982405D-05  0.44021304D-05 -0.18258838D-03  0.00000000D+00 -0.10708029D-04
 -0.15233274D-05 -0.44070248D-02 -0.44346767D-02 -0.44069004D-02  0.00000000D+00
  0.00000000D+00 -0.64274122D-05  0.00000000D+00  0.00000000D+00  0.00000000D+00
  0.00000000D+00  0.00000000D+00  0.00000000D+00  0.00000000D+00  0.00000000D+00
  0.00000000D+00  0.00000000D+00  0.00000000D+00  0.00000000D+00 -0.16276094D-04
 -0.12539853D-04 -0.55056708D-05  0.00000000D+00  0.00000000D+00  0.00000000D+00
  0.00000000D+00  0.00000000D+00 -0.18829525D-04  0.00000000D+00  0.00000000D+00
  0.00000000D+00  0.00000000D+00  0.00000000D+00  0.00000000D+00  0.77406306D-04
MO    2     MO 0.0        OCC NO =    2.0000000  ORB. ENERGY = -104.873064
 -0.87975891D-09 -0.16229834D-08 -0.26199985D-08 -0.34104595D-08 -0.29101513D-08
 -0.10048053D-08 -0.36999383D-04 -0.17052982D-04  0.47818340D-04  0.00000000D+00
  0.00000000D+00  0.00000000D+00  0.00000000D+00  0.00000000D+00  0.00000000D+00
 -0.62365485D-04 -0.47817898D-04 -0.23864483D-04 -0.43026087D-04  0.00000000D+00
  0.00000000D+00 -0.34917676D-04 -0.16339704D-04 -0.39019894D-04 -0.31235010D-04
  0.00000000D+00  0.00000000D+00  0.00000000D+00  0.18392958D+01  0.33965826D+01
  0.55108747D+01  0.73170829D+01  0.63236069D+01  0.19783823D+01 -0.17712604D-02
 -0.80659676D-02 -0.12568314D-01  0.23774782D-02  0.15524972D-01  0.62589445D-02
  0.00000000D+00  0.00000000D+00  0.00000000D+00  0.00000000D+00  0.00000000D+00
  0.00000000D+00 -0.47686504D-03 -0.60206754D-03 -0.62036130D-03 -0.44956789D-03
 -0.19503105D-03 -0.35386200D-04  0.27138049D-03  0.34263234D-03  0.35304319D-03
  0.25584588D-03  0.11099078D-03  0.20138034D-04  0.53581998D-02 -0.60789942D-03
 -0.49378854D-02  0.00000000D+00  0.00000000D+00  0.00000000D+00 -0.32447523D-05
  0.20410688D-04  0.13414047D-04  0.14159937D-05 -0.89071223D-05 -0.58538230D-05
  0.15956495D-03  0.00000000D+00  0.27204825D-05  0.53861530D-05  0.44101064D-02
  0.43877221D-02  0.44225623D-02  0.00000000D+00  0.00000000D+00 -0.12838772D-04
  0.18392958D+01  0.33965826D+01  0.55108747D+01  0.73170829D+01  0.63236069D+01
  0.19783823D+01 -0.17712604D-02 -0.80659676D-02 -0.12568314D-01  0.23774782D-02
  0.15524972D-01  0.62589445D-02  0.00000000D+00  0.00000000D+00  0.00000000D+00
  0.00000000D+00  0.00000000D+00  0.00000000D+00  0.47686504D-03  0.60206754D-03
  0.62036130D-03  0.44956789D-03  0.19503105D-03  0.35386200D-04  0.27138049D-03
  0.34263234D-03  0.35304319D-03  0.25584588D-03  0.11099078D-03  0.20138034D-04
  0.53581998D-02 -0.60789942D-03 -0.49378854D-02  0.00000000D+00  0.00000000D+00
  0.00000000D+00  0.32447523D-05 -0.20410688D-04 -0.13414047D-04  0.14159937D-05
 -0.89071223D-05 -0.58538230D-05  0.15956495D-03  0.00000000D+00 -0.27204825D-05
  0.53861530D-05  0.44101064D-02  0.43877221D-02  0.44225623D-02  0.00000000D+00
  0.00000000D+00  0.12838772D-04 -0.11089249D-04 -0.20410139D-04 -0.33027457D-04
 -0.43415517D-04 -0.37237237D-04 -0.12732044D-04  0.35902128D-04  0.16019460D-04
 -0.47305679D-04  0.00000000D+00  0.00000000D+00  0.00000000D+00  0.00000000D+00
  0.00000000D+00  0.00000000D+00  0.54711668D-04  0.42152391D-04  0.18507170D-04
  0.95205440D-04  0.00000000D+00  0.00000000D+00 -0.31683079D-04 -0.62921792D-04
 -0.50402199D-04 -0.24333147D-04  0.00000000D+00  0.00000000D+00  0.00000000D+00
MO    3     MO 0.0        OCC NO =    2.0000000  ORB. ENERGY =  -20.636726
 -0.10921503D-04 -0.20148040D-04 -0.32525184D-04 -0.42338125D-04 -0.36127199D-04
 -0.12473854D-04 -0.10152514D-03 -0.46792842D-04  0.13121201D-03  0.00000000D+00
  0.00000000D+00  0.00000000D+00  0.00000000D+00  0.00000000D+00  0.00000000D+00
 -0.47852287D-03 -0.36690098D-03 -0.18310930D-03 -0.72754825D-04  0.00000000D+00
  0.00000000D+00 -0.13817596D-03 -0.34640017D-05 -0.14417161D-04 -0.11455327D-02
  0.00000000D+00  0.00000000D+00  0.00000000D+00  0.98175472D-06  0.18129824D-05
  0.29415209D-05  0.39056146D-05  0.33753302D-05  0.10559944D-05 -0.60226093D-06
 -0.27425765D-05 -0.42734564D-05  0.80838607D-06  0.52787744D-05  0.21281556D-05
  0.00000000D+00  0.00000000D+00  0.00000000D+00  0.00000000D+00  0.00000000D+00
  0.00000000D+00 -0.80599046D-04 -0.10176059D-03 -0.10485258D-03 -0.75985322D-04
 -0.32963870D-04 -0.59809249D-05  0.10394997D-03  0.13124238D-03  0.13523017D-03
  0.97999570D-04  0.42514067D-04  0.77137011D-05 -0.16372224D-04  0.18574644D-05
  0.15087935D-04  0.00000000D+00  0.00000000D+00  0.00000000D+00 -0.31807839D-05
  0.20008303D-04  0.13149597D-04  0.20084897D-05 -0.12634141D-04 -0.83032456D-05
 -0.38582774D-04  0.00000000D+00  0.18154136D-04 -0.36239611D-05 -0.41683986D-05
 -0.17716419D-04 -0.20760197D-04  0.00000000D+00  0.00000000D+00  0.34081019D-04
  0.98175472D-06  0.18129824D-05  0.29415209D-05  0.39056146D-05  0.33753302D-05
  0.10559944D-05 -0.60226093D-06 -0.27425765D-05 -0.42734564D-05  0.80838607D-06
  0.52787744D-05  0.21281556D-05  0.00000000D+00  0.00000000D+00  0.00000000D+00
  0.00000000D+00  0.00000000D+00  0.00000000D+00  0.80599046D-04  0.10176059D-03
  0.10485258D-03  0.75985322D-04  0.32963870D-04  0.59809249D-05  0.10394997D-03
  0.13124238D-03  0.13523017D-03  0.97999570D-04  0.42514067D-04  0.77137011D-05
 -0.16372224D-04  0.18574644D-05  0.15087935D-04  0.00000000D+00  0.00000000D+00
  0.00000000D+00  0.31807839D-05 -0.20008303D-04 -0.13149597D-04  0.20084897D-05
 -0.12634141D-04 -0.83032456D-05 -0.38582774D-04  0.00000000D+00 -0.18154136D-04
 -0.36239611D-05 -0.41683986D-05 -0.17716419D-04 -0.20760197D-04  0.00000000D+00
  0.00000000D+00 -0.34081019D-04  0.82728628D+00  0.15226484D+01  0.24639325D+01
  0.32389082D+01  0.27779928D+01  0.94984291D+00 -0.13018092D-01 -0.58086475D-02
  0.17153014D-01  0.00000000D+00  0.00000000D+00  0.00000000D+00  0.00000000D+00
  0.00000000D+00  0.00000000D+00 -0.57776918D-02 -0.44514000D-02 -0.19544044D-02
  0.13681127D-02  0.00000000D+00  0.00000000D+00 -0.67533794D-04 -0.47544143D-02
 -0.44714776D-02 -0.37687638D-02  0.00000000D+00  0.00000000D+00  0.00000000D+00
MO    4     MO 0.0        OCC NO =    2.0000000  ORB. ENERGY =  -11.476090
  0.53410380D+00  0.98531722D+00  0.15906075D+01  0.20704984D+01  0.17667600D+01
  0.61001977D+00 -0.10467991D-01 -0.48246873D-02  0.13528927D-01  0.00000000D+00
  0.00000000D+00  0.00000000D+00  0.00000000D+00  0.00000000D+00  0.00000000D+00
 -0.52950769D-03 -0.40599291D-03 -0.20261892D-03 -0.15952343D-02  0.00000000D+00
  0.00000000D+00  0.52322538D-03 -0.24378162D-02 -0.22808582D-02 -0.11134917D-02
  0.00000000D+00  0.00000000D+00  0.00000000D+00 -0.92936130D-04 -0.17162288D-03
 -0.27845404D-03 -0.36971832D-03 -0.31951986D-03 -0.99963902D-04 -0.13026040D-04
 -0.59317996D-04 -0.92428735D-04  0.17484232D-04  0.11417232D-03  0.46028954D-04
  0.00000000D+00  0.00000000D+00  0.00000000D+00  0.00000000D+00  0.00000000D+00
  0.00000000D+00  0.12273755D-03  0.15496270D-03  0.15967123D-03  0.11571170D-03
  0.50197922D-04  0.91078505D-05  0.15626444D-03  0.19729219D-03  0.20328689D-03
  0.14731941D-03  0.63909946D-04  0.11595744D-04 -0.14556864D-03  0.16515079D-04
  0.13414977D-03  0.00000000D+00  0.00000000D+00  0.00000000D+00  0.15700378D-04
 -0.98761167D-04 -0.64906529D-04 -0.19344969D-05  0.12168699D-04  0.79973539D-05
  0.41845024D-03  0.00000000D+00 -0.17809365D-03  0.75229207D-04 -0.14392434D-03
 -0.22493117D-03 -0.34504714D-03  0.00000000D+00  0.00000000D+00  0.23194037D-03
 -0.92936130D-04 -0.17162288D-03 -0.27845404D-03 -0.36971832D-03 -0.31951986D-03
 -0.99963902D-04 -0.13026040D-04 -0.59317996D-04 -0.92428735D-04  0.17484232D-04
  0.11417232D-03  0.46028954D-04  0.00000000D+00  0.00000000D+00  0.00000000D+00
  0.00000000D+00  0.00000000D+00  0.00000000D+00 -0.12273755D-03 -0.15496270D-03
 -0.15967123D-03 -0.11571170D-03 -0.50197922D-04 -0.91078505D-05  0.15626444D-03
  0.19729219D-03  0.20328689D-03  0.14731941D-03  0.63909946D-04  0.11595744D-04
 -0.14556864D-03  0.16515079D-04  0.13414977D-03  0.00000000D+00  0.00000000D+00
  0.00000000D+00 -0.15700378D-04  0.98761167D-04  0.64906529D-04 -0.19344969D-05
  0.12168699D-04  0.79973539D-05  0.41845024D-03  0.00000000D+00  0.17809365D-03
  0.75229207D-04 -0.14392434D-03 -0.22493117D-03 -0.34504714D-03  0.00000000D+00
  0.00000000D+00 -0.23194037D-03 -0.41263347D-03 -0.75946585D-03 -0.12289591D-02
 -0.16155012D-02 -0.13856059D-02 -0.47376221D-03 -0.29907999D-03 -0.13344891D-03
  0.39407642D-03  0.00000000D+00  0.00000000D+00  0.00000000D+00  0.00000000D+00
  0.00000000D+00  0.00000000D+00 -0.19116181D-02 -0.14727987D-02 -0.64663796D-03
 -0.51083253D-03  0.00000000D+00  0.00000000D+00  0.24601246D-03  0.15153865D-03
 -0.83468500D-04  0.66595270D-03  0.00000000D+00  0.00000000D+00  0.00000000D+00
MO    5     MO 0.0        OCC NO =    2.0000000  ORB. ENERGY =  -10.608385
  0.00000000D+00  0.00000000D+00  0.00000000D+00  0.00000000D+00  0.00000000D+00
  0.00000000D+00  0.00000000D+00  0.00000000D+00  0.00000000D+00  0.00000000D+00
  0.00000000D+00  0.00000000D+00 -0.30713061D-03 -0.23548827D-03 -0.11752515D-03
  0.00000000D+00  0.00000000D+00  0.00000000D+00  0.00000000D+00  0.00000000D+00
  0.94372202D-04  0.00000000D+00  0.00000000D+00  0.00000000D+00  0.00000000D+00
  0.00000000D+00  0.00000000D+00  0.83831081D-03 -0.52943177D+00 -0.97768870D+00
 -0.15862767D+01 -0.21061844D+01 -0.18202174D+01 -0.56946708D+00 -0.12460972D+00
 -0.56744786D+00 -0.88419183D+00  0.16725767D+00  0.10921953D+01  0.44032221D+00
  0.00000000D+00  0.00000000D+00  0.00000000D+00  0.00000000D+00  0.00000000D+00
  0.00000000D+00 -0.33276331D-01 -0.42013143D-01 -0.43289708D-01 -0.31371497D-01
 -0.13609549D-01 -0.24693001D-02  0.20704412D-01  0.26140425D-01  0.26934699D-01
  0.19519232D-01  0.84678118D-02  0.15363896D-02 -0.79967276D-02  0.90724614D-03
  0.73694386D-02  0.00000000D+00  0.00000000D+00  0.00000000D+00  0.77839347D-04
 -0.48963818D-03 -0.32179363D-03 -0.34892683D-04  0.21948784D-03  0.14424894D-03
 -0.89265133D-03  0.00000000D+00  0.16102726D-03 -0.49323555D-04 -0.11060077D-02
 -0.95963015D-03 -0.10377997D-02  0.00000000D+00  0.00000000D+00 -0.38946316D-03
  0.52943177D+00  0.97768870D+00  0.15862767D+01  0.21061844D+01  0.18202174D+01
  0.56946708D+00  0.12460972D+00  0.56744786D+00  0.88419183D+00 -0.16725767D+00
 -0.10921953D+01 -0.44032221D+00  0.00000000D+00  0.00000000D+00  0.00000000D+00
  0.00000000D+00  0.00000000D+00  0.00000000D+00 -0.33276331D-01 -0.42013143D-01
 -0.43289708D-01 -0.31371497D-01 -0.13609549D-01 -0.24693001D-02 -0.20704412D-01
 -0.26140425D-01 -0.26934699D-01 -0.19519232D-01 -0.84678118D-02 -0.15363896D-02
  0.79967276D-02 -0.90724614D-03 -0.73694386D-02  0.00000000D+00  0.00000000D+00
  0.00000000D+00  0.77839347D-04 -0.48963818D-03 -0.32179363D-03  0.34892683D-04
 -0.21948784D-03 -0.14424894D-03  0.89265133D-03  0.00000000D+00  0.16102726D-03
  0.49323555D-04  0.11060077D-02  0.95963015D-03  0.10377997D-02  0.00000000D+00
  0.00000000D+00 -0.38946316D-03  0.00000000D+00  0.00000000D+00  0.00000000D+00
  0.00000000D+00  0.00000000D+00  0.00000000D+00  0.00000000D+00  0.00000000D+00
  0.00000000D+00  0.00000000D+00  0.00000000D+00  0.00000000D+00 -0.49915904D-03
 -0.38457513D-03 -0.16884920D-03  0.00000000D+00  0.00000000D+00  0.00000000D+00
  0.00000000D+00  0.00000000D+00  0.89135792D-04  0.00000000D+00  0.00000000D+00
  0.00000000D+00  0.00000000D+00  0.00000000D+00  0.00000000D+00 -0.21340801D-04
MO    6     MO 0.0        OCC NO =    2.0000000  ORB. ENERGY =  -10.608364
 -0.21140983D-03 -0.39000986D-03 -0.62959684D-03 -0.81954801D-03 -0.69932180D-03
 -0.24145901D-03 -0.23474068D-03 -0.10819176D-03  0.30338100D-03  0.00000000D+00
  0.00000000D+00  0.00000000D+00  0.00000000D+00  0.00000000D+00  0.00000000D+00
 -0.86102666D-04 -0.66018063D-04 -0.32947640D-04  0.24401711D-03  0.00000000D+00
  0.00000000D+00  0.13200685D-03 -0.75605824D-04 -0.99642135D-03 -0.49475672D-03
  0.00000000D+00  0.00000000D+00  0.00000000D+00 -0.52945407D+00 -0.97772987D+00
 -0.15863435D+01 -0.21062731D+01 -0.18202941D+01 -0.56949106D+00 -0.12459620D+00
 -0.56738629D+00 -0.88409590D+00  0.16723952D+00  0.10920768D+01  0.44027444D+00
  0.00000000D+00  0.00000000D+00  0.00000000D+00  0.00000000D+00  0.00000000D+00
  0.00000000D+00 -0.33702248D-01 -0.42550885D-01 -0.43843789D-01 -0.31773033D-01
 -0.13783743D-01 -0.25009057D-02  0.20503699D-01  0.25887014D-01  0.26673588D-01
  0.19330008D-01  0.83857229D-02  0.15214955D-02 -0.78706078D-02  0.89293757D-03
  0.72532121D-02  0.00000000D+00  0.00000000D+00  0.00000000D+00  0.59263108D-04
 -0.37278680D-03 -0.24499809D-03 -0.41727170D-04  0.26247928D-03  0.17250322D-03
 -0.65168722D-03  0.00000000D+00  0.16344295D-04 -0.61614842D-04 -0.13480974D-02
 -0.90510768D-03 -0.12740762D-02  0.00000000D+00  0.00000000D+00 -0.38143034D-03
 -0.52945407D+00 -0.97772987D+00 -0.15863435D+01 -0.21062731D+01 -0.18202941D+01
 -0.56949106D+00 -0.12459620D+00 -0.56738629D+00 -0.88409590D+00  0.16723952D+00
  0.10920768D+01  0.44027444D+00  0.00000000D+00  0.00000000D+00  0.00000000D+00
  0.00000000D+00  0.00000000D+00  0.00000000D+00  0.33702248D-01  0.42550885D-01
  0.43843789D-01  0.31773033D-01  0.13783743D-01  0.25009057D-02  0.20503699D-01
  0.25887014D-01  0.26673588D-01  0.19330008D-01  0.83857229D-02  0.15214955D-02
 -0.78706078D-02  0.89293757D-03  0.72532121D-02  0.00000000D+00  0.00000000D+00
  0.00000000D+00 -0.59263108D-04  0.37278680D-03  0.24499809D-03 -0.41727170D-04
  0.26247928D-03  0.17250322D-03 -0.65168722D-03  0.00000000D+00 -0.16344295D-04
 -0.61614842D-04 -0.13480974D-02 -0.90510768D-03 -0.12740762D-02  0.00000000D+00
  0.00000000D+00  0.38143034D-03 -0.55504652D-06 -0.10215819D-05 -0.16531124D-05
 -0.21730625D-05 -0.18638230D-05 -0.63727275D-06  0.42939984D-04  0.19159737D-04
 -0.56578961D-04  0.00000000D+00  0.00000000D+00  0.00000000D+00  0.00000000D+00
  0.00000000D+00  0.00000000D+00 -0.34396821D-05 -0.26500896D-05 -0.11635321D-05
 -0.10362103D-03  0.00000000D+00  0.00000000D+00 -0.27103735D-04 -0.16141691D-03
  0.29460461D-04  0.98942985D-04  0.00000000D+00  0.00000000D+00  0.00000000D+00
MO    7     MO 0.0        OCC NO =    2.0000000  ORB. ENERGY =   -8.077735
  0.93255180D-04  0.17203760D-03  0.27772203D-03  0.36151156D-03  0.30847847D-03
  0.10651020D-03  0.49993679D-03  0.23042041D-03 -0.64612288D-03  0.00000000D+00
  0.00000000D+00  0.00000000D+00  0.00000000D+00  0.00000000D+00  0.00000000D+00
 -0.52936331D-04 -0.40588221D-04 -0.20256367D-04  0.19199271D-03  0.00000000D+00
  0.00000000D+00 -0.32271314D-03 -0.26040596D-03  0.16887381D-02  0.80308703D-03
  0.00000000D+00  0.00000000D+00  0.00000000D+00 -0.26280937D-02 -0.48532364D-02
 -0.78742608D-02 -0.10455077D-01 -0.90355402D-02 -0.28268286D-02 -0.65120009D-03
 -0.29654356D-02 -0.46207135D-02  0.87407476D-03  0.57077226D-02  0.23010875D-02
  0.00000000D+00  0.00000000D+00  0.00000000D+00  0.00000000D+00  0.00000000D+00
  0.00000000D+00  0.78747849D+01  0.99423359D+01  0.10244433D+02  0.74240093D+01
  0.32206756D+01  0.58435551D+00 -0.48407043D+01 -0.61116474D+01 -0.62973492D+01
 -0.45636083D+01 -0.19797796D+01 -0.35920883D+00  0.71450360D-03 -0.81061987D-04
 -0.65845565D-03  0.00000000D+00  0.00000000D+00  0.00000000D+00 -0.12191771D-02
  0.76690735D-02  0.50401687D-02  0.74627136D-03 -0.46943220D-02 -0.30851412D-02
 -0.16061578D-03  0.00000000D+00 -0.30931577D-03  0.25406198D-03  0.72432335D-03
 -0.25523880D-03  0.53347282D-03  0.00000000D+00  0.00000000D+00  0.90876840D-03
 -0.26280937D-02 -0.48532364D-02 -0.78742608D-02 -0.10455077D-01 -0.90355402D-02
 -0.28268286D-02 -0.65120009D-03 -0.29654356D-02 -0.46207135D-02  0.87407476D-03
  0.57077226D-02  0.23010875D-02  0.00000000D+00  0.00000000D+00  0.00000000D+00
  0.00000000D+00  0.00000000D+00  0.00000000D+00 -0.78747849D+01 -0.99423359D+01
 -0.10244433D+02 -0.74240093D+01 -0.32206756D+01 -0.58435551D+00 -0.48407043D+01
 -0.61116474D+01 -0.62973492D+01 -0.45636083D+01 -0.19797796D+01 -0.35920883D+00
  0.71450360D-03 -0.81061987D-04 -0.65845565D-03  0.00000000D+00  0.00000000D+00
  0.00000000D+00  0.12191771D-02 -0.76690735D-02 -0.50401687D-02  0.74627136D-03
 -0.46943220D-02 -0.30851412D-02 -0.16061578D-03  0.00000000D+00  0.30931577D-03
  0.25406198D-03  0.72432335D-03 -0.25523880D-03  0.53347282D-03  0.00000000D+00
  0.00000000D+00 -0.90876840D-03  0.59607370D-05  0.10970938D-04  0.17753049D-04
  0.23336879D-04  0.20015906D-04  0.68437781D-05 -0.92501959D-04 -0.41274194D-04
  0.12188325D-03  0.00000000D+00  0.00000000D+00  0.00000000D+00  0.00000000D+00
  0.00000000D+00  0.00000000D+00  0.18866086D-03  0.14535302D-03  0.63817807D-04
  0.10291744D-04  0.00000000D+00  0.00000000D+00  0.13941164D-03  0.16170018D-03
 -0.37716725D-04 -0.24581974D-03  0.00000000D+00  0.00000000D+00  0.00000000D+00
MO    8     MO 0.0        OCC NO =    2.0000000  ORB. ENERGY =   -8.077732
  0.00000000D+00  0.00000000D+00  0.00000000D+00  0.00000000D+00  0.00000000D+00
  0.00000000D+00  0.00000000D+00  0.00000000D+00  0.00000000D+00  0.00000000D+00
  0.00000000D+00  0.00000000D+00  0.65900832D-03  0.50528578D-03  0.25217302D-03
  0.00000000D+00  0.00000000D+00  0.00000000D+00  0.00000000D+00  0.00000000D+00
  0.55631182D-03  0.00000000D+00  0.00000000D+00  0.00000000D+00  0.00000000D+00
  0.00000000D+00  0.00000000D+00 -0.17774188D-02 -0.26388333D-02 -0.48730690D-02
 -0.79064387D-02 -0.10497801D-01 -0.90724636D-02 -0.28383803D-02 -0.64308901D-03
 -0.29284994D-02 -0.45631598D-02  0.86318765D-03  0.56366296D-02  0.22724261D-02
  0.00000000D+00  0.00000000D+00  0.00000000D+00  0.00000000D+00  0.00000000D+00
  0.00000000D+00  0.78622479D+01  0.99265072D+01  0.10228123D+02  0.74121899D+01
  0.32155482D+01  0.58342519D+00 -0.48611886D+01 -0.61375099D+01 -0.63239975D+01
 -0.45829200D+01 -0.19881574D+01 -0.36072888D+00  0.81263438D-03 -0.92195138D-04
 -0.74888874D-03  0.00000000D+00  0.00000000D+00  0.00000000D+00 -0.12166535D-02
  0.76531988D-02  0.50297357D-02  0.75847134D-03 -0.47710643D-02 -0.31355768D-02
 -0.13933134D-03  0.00000000D+00 -0.39169135D-03  0.15508827D-03  0.63366902D-03
  0.79622933D-04  0.20643005D-03  0.00000000D+00  0.00000000D+00  0.11381933D-02
  0.26388333D-02  0.48730690D-02  0.79064387D-02  0.10497801D-01  0.90724636D-02
  0.28383803D-02  0.64308901D-03  0.29284994D-02  0.45631598D-02 -0.86318765D-03
 -0.56366296D-02 -0.22724261D-02  0.00000000D+00  0.00000000D+00  0.00000000D+00
  0.00000000D+00  0.00000000D+00  0.00000000D+00  0.78622479D+01  0.99265072D+01
  0.10228123D+02  0.74121899D+01  0.32155482D+01  0.58342519D+00  0.48611886D+01
  0.61375099D+01  0.63239975D+01  0.45829200D+01  0.19881574D+01  0.36072888D+00
 -0.81263438D-03  0.92195138D-04  0.74888874D-03  0.00000000D+00  0.00000000D+00
  0.00000000D+00 -0.12166535D-02  0.76531988D-02  0.50297357D-02 -0.75847134D-03
  0.47710643D-02  0.31355768D-02  0.13933134D-03  0.00000000D+00 -0.39169135D-03
 -0.15508827D-03 -0.63366902D-03 -0.79622933D-04 -0.20643005D-03  0.00000000D+00
  0.00000000D+00  0.11381933D-02  0.00000000D+00  0.00000000D+00  0.00000000D+00
  0.00000000D+00  0.00000000D+00  0.00000000D+00  0.00000000D+00  0.00000000D+00
  0.00000000D+00  0.00000000D+00  0.00000000D+00  0.00000000D+00  0.87455295D-03
  0.67379590D-03  0.29583269D-03  0.00000000D+00  0.00000000D+00  0.00000000D+00
  0.00000000D+00  0.00000000D+00 -0.45282169D-03  0.00000000D+00  0.00000000D+00
  0.00000000D+00  0.00000000D+00  0.00000000D+00  0.00000000D+00  0.41811207D-03
MO    9     MO 0.0        OCC NO =    2.0000000  ORB. ENERGY =   -8.074004
  0.00000000D+00  0.00000000D+00  0.00000000D+00  0.00000000D+00  0.00000000D+00
  0.00000000D+00  0.00000000D+00  0.00000000D+00  0.00000000D+00  0.00000000D+00
  0.00000000D+00  0.00000000D+00  0.00000000D+00  0.00000000D+00  0.00000000D+00
  0.00000000D+00  0.00000000D+00  0.00000000D+00  0.00000000D+00  0.00000000D+00
  0.00000000D+00  0.00000000D+00  0.00000000D+00  0.00000000D+00  0.00000000D+00
 -0.56225768D-03  0.00000000D+00  0.00000000D+00  0.00000000D+00  0.00000000D+00
  0.00000000D+00  0.00000000D+00  0.00000000D+00  0.00000000D+00  0.00000000D+00
  0.00000000D+00  0.00000000D+00  0.00000000D+00  0.00000000D+00  0.00000000D+00
  0.92514526D+01  0.11680452D+02  0.12035362D+02  0.87218725D+01  0.37837132D+01
  0.68651237D+00  0.00000000D+00  0.00000000D+00  0.00000000D+00  0.00000000D+00
  0.00000000D+00  0.00000000D+00  0.00000000D+00  0.00000000D+00  0.00000000D+00
  0.00000000D+00  0.00000000D+00  0.00000000D+00  0.00000000D+00  0.00000000D+00
  0.00000000D+00 -0.12581562D-02  0.79142664D-02  0.52013112D-02  0.00000000D+00
  0.00000000D+00  0.00000000D+00  0.00000000D+00  0.00000000D+00  0.00000000D+00
  0.00000000D+00 -0.42882025D-03  0.00000000D+00  0.00000000D+00  0.00000000D+00
  0.00000000D+00  0.00000000D+00 -0.29642491D-03  0.22505204D-03  0.00000000D+00
  0.00000000D+00  0.00000000D+00  0.00000000D+00  0.00000000D+00  0.00000000D+00
  0.00000000D+00  0.00000000D+00  0.00000000D+00  0.00000000D+00  0.00000000D+00
  0.00000000D+00  0.00000000D+00 -0.92514526D+01 -0.11680452D+02 -0.12035362D+02
 -0.87218725D+01 -0.37837132D+01 -0.68651237D+00  0.00000000D+00  0.00000000D+00
  0.00000000D+00  0.00000000D+00  0.00000000D+00  0.00000000D+00  0.00000000D+00
  0.00000000D+00  0.00000000D+00  0.00000000D+00  0.00000000D+00  0.00000000D+00
  0.00000000D+00  0.00000000D+00  0.00000000D+00  0.12581562D-02 -0.79142664D-02
 -0.52013112D-02  0.00000000D+00  0.00000000D+00  0.00000000D+00  0.00000000D+00
  0.00000000D+00  0.00000000D+00  0.00000000D+00  0.42882025D-03  0.00000000D+00
  0.00000000D+00  0.00000000D+00  0.00000000D+00  0.00000000D+00 -0.29642491D-03
 -0.22505204D-03  0.00000000D+00  0.00000000D+00  0.00000000D+00  0.00000000D+00
  0.00000000D+00  0.00000000D+00  0.00000000D+00  0.00000000D+00  0.00000000D+00
  0.00000000D+00  0.00000000D+00  0.00000000D+00  0.00000000D+00  0.00000000D+00
  0.00000000D+00  0.00000000D+00  0.00000000D+00  0.00000000D+00  0.00000000D+00
  0.00000000D+00  0.00000000D+00  0.00000000D+00  0.00000000D+00  0.00000000D+00
  0.00000000D+00  0.00000000D+00  0.20528815D-03  0.00000000D+00  0.00000000D+00
MO   10     MO 0.0        OCC NO =    2.0000000  ORB. ENERGY =   -8.073998
  0.00000000D+00  0.00000000D+00  0.00000000D+00  0.00000000D+00  0.00000000D+00
  0.00000000D+00  0.00000000D+00  0.00000000D+00  0.00000000D+00 -0.24462074D-03
 -0.18755967D-03 -0.93605420D-04  0.00000000D+00  0.00000000D+00  0.00000000D+00
  0.00000000D+00  0.00000000D+00  0.00000000D+00  0.00000000D+00  0.96955192D-04
  0.00000000D+00  0.00000000D+00  0.00000000D+00  0.00000000D+00  0.00000000D+00
  0.00000000D+00  0.42337526D-03  0.00000000D+00  0.00000000D+00  0.00000000D+00
  0.00000000D+00  0.00000000D+00  0.00000000D+00  0.00000000D+00  0.00000000D+00
  0.00000000D+00  0.00000000D+00  0.00000000D+00  0.00000000D+00  0.00000000D+00
  0.92517690D+01  0.11680852D+02  0.12035773D+02  0.87221708D+01  0.37838427D+01
  0.68653586D+00  0.00000000D+00  0.00000000D+00  0.00000000D+00  0.00000000D+00
  0.00000000D+00  0.00000000D+00  0.00000000D+00  0.00000000D+00  0.00000000D+00
  0.00000000D+00  0.00000000D+00  0.00000000D+00  0.00000000D+00  0.00000000D+00
  0.00000000D+00 -0.12468552D-02  0.78431789D-02  0.51545919D-02  0.00000000D+00
  0.00000000D+00  0.00000000D+00  0.00000000D+00  0.00000000D+00  0.00000000D+00
  0.00000000D+00 -0.39970730D-03  0.00000000D+00  0.00000000D+00  0.00000000D+00