b3lyp/6-311G** opted                                                    
SP        RB3LYP                                                      6-31G(d)            
Number of atoms                            I               15
Info1-9                                    I   N=           9
          23          22           0           0           0         110
           1          18        -502
Charge                                     I                0
Multiplicity                               I                1
Number of electrons                        I               50
Number of alpha electrons                  I               25
Number of beta electrons                   I               25
Number of basis functions                  I              121
Number of independent functions            I              121
Number of point charges in /Mol/           I                0
Number of translation vectors              I                0
Atomic numbers                             I   N=          15
           6           6           6           6           6           6
           6           1           1           1           1           1
           1           1           1
Nuclear charges                            R   N=          15
  6.00000000E+00  6.00000000E+00  6.00000000E+00  6.00000000E+00  6.00000000E+00
  6.00000000E+00  6.00000000E+00  1.00000000E+00  1.00000000E+00  1.00000000E+00
  1.00000000E+00  1.00000000E+00  1.00000000E+00  1.00000000E+00  1.00000000E+00
Current cartesian coordinates              R   N=          45
  4.82991625E-01 -2.67916089E+00  1.28665972E+00  4.82991625E-01 -2.67916089E+00
 -1.28665972E+00 -4.70184346E-01 -6.80607317E-01 -2.88657934E+00 -4.70184346E-01
 -6.80607317E-01  2.88657934E+00 -4.70184346E-01  1.79894203E+00 -2.30800756E+00
 -4.70184346E-01  1.79894203E+00  2.30800756E+00  8.62673510E-01  2.80615283E+00
  0.00000000E+00  1.01682792E+00 -4.42605963E+00  2.22596132E+00  1.01682792E+00
 -4.42605963E+00 -2.22596132E+00 -1.28640620E+00 -1.26503158E+00 -4.67945701E+00
 -1.28640620E+00 -1.26503158E+00  4.67945701E+00 -1.43173936E+00  3.12619873E+00
 -3.54311934E+00 -1.43173936E+00  3.12619873E+00  3.54311934E+00  2.83297001E+00
  2.15488328E+00  0.00000000E+00  8.82149028E-01  4.86789884E+00  0.00000000E+00
Force Field                                I                0
Int Atom Types                             I   N=          15
           0           0           0           0           0           0
           0           0           0           0           0           0
           0           0           0
MM charges                                 R   N=          15
  0.00000000E+00  0.00000000E+00  0.00000000E+00  0.00000000E+00  0.00000000E+00
  0.00000000E+00  0.00000000E+00  0.00000000E+00  0.00000000E+00  0.00000000E+00
  0.00000000E+00  0.00000000E+00  0.00000000E+00  0.00000000E+00  0.00000000E+00
Integer atomic weights                     I   N=          15
          12          12          12          12          12          12
          12           1           1           1           1           1
           1           1           1
Real atomic weights                        R   N=          15
  1.20000000E+01  1.20000000E+01  1.20000000E+01  1.20000000E+01  1.20000000E+01
  1.20000000E+01  1.20000000E+01  1.00782504E+00  1.00782504E+00  1.00782504E+00
  1.00782504E+00  1.00782504E+00  1.00782504E+00  1.00782504E+00  1.00782504E+00
Atom fragment info                         I   N=          15
           0           0           0           0           0           0
           0           0           0           0           0           0
           0           0           0
Atom residue num                           I   N=          15
           0           0           0           0           0           0
           0           0           0           0           0           0
           0           0           0
Nuclear spins                              I   N=          15
           0           0           0           0           0           0
           0           1           1           1           1           1
           1           1           1
Nuclear ZEff                               R   N=          15
 -3.60000000E+00 -3.60000000E+00 -3.60000000E+00 -3.60000000E+00 -3.60000000E+00
 -3.60000000E+00 -3.60000000E+00 -1.00000000E+00 -1.00000000E+00 -1.00000000E+00
 -1.00000000E+00 -1.00000000E+00 -1.00000000E+00 -1.00000000E+00 -1.00000000E+00
Nuclear QMom                               R   N=          15
  0.00000000E+00  0.00000000E+00  0.00000000E+00  0.00000000E+00  0.00000000E+00
  0.00000000E+00  0.00000000E+00  0.00000000E+00  0.00000000E+00  0.00000000E+00
  0.00000000E+00  0.00000000E+00  0.00000000E+00  0.00000000E+00  0.00000000E+00
Nuclear GFac                               R   N=          15
  0.00000000E+00  0.00000000E+00  0.00000000E+00  0.00000000E+00  0.00000000E+00
  0.00000000E+00  0.00000000E+00  2.79284600E+00  2.79284600E+00  2.79284600E+00
  2.79284600E+00  2.79284600E+00  2.79284600E+00  2.79284600E+00  2.79284600E+00
MicOpt                                     I   N=          15
          -1          -1          -1          -1          -1          -1
          -1          -1          -1          -1          -1          -1
          -1          -1          -1
Number of contracted shells                I               44
Number of primitive shells                 I              109
Pure/Cartesian d shells                    I                1
Pure/Cartesian f shells                    I                0
Highest angular momentum                   I                2
Largest degree of contraction              I                6
Shell types                                I   N=          44
           0          -1          -1           2           0          -1
          -1           2           0          -1          -1           2
           0          -1          -1           2           0          -1
          -1           2           0          -1          -1           2
           0          -1          -1           2           0           0
           0           0           0           0           0           0
           0           0           0           0           0           0
           0           0
Number of primitives per shell             I   N=          44
           6           3           1           1           6           3
           1           1           6           3           1           1
           6           3           1           1           6           3
           1           1           6           3           1           1
           6           3           1           1           3           1
           3           1           3           1           3           1
           3           1           3           1           3           1
           3           1
Shell to atom map                          I   N=          44
           1           1           1           1           2           2
           2           2           3           3           3           3
           4           4           4           4           5           5
           5           5           6           6           6           6
           7           7           7           7           8           8
           9           9          10          10          11          11
          12          12          13          13          14          14
          15          15
Primitive exponents                        R   N=         109
  3.04752488E+03  4.57369518E+02  1.03948685E+02  2.92101553E+01  9.28666296E+00
  3.16392696E+00  7.86827235E+00  1.88128854E+00  5.44249258E-01  1.68714478E-01
  8.00000000E-01  3.04752488E+03  4.57369518E+02  1.03948685E+02  2.92101553E+01
  9.28666296E+00  3.16392696E+00  7.86827235E+00  1.88128854E+00  5.44249258E-01
  1.68714478E-01  8.00000000E-01  3.04752488E+03  4.57369518E+02  1.03948685E+02
  2.92101553E+01  9.28666296E+00  3.16392696E+00  7.86827235E+00  1.88128854E+00
  5.44249258E-01  1.68714478E-01  8.00000000E-01  3.04752488E+03  4.57369518E+02
  1.03948685E+02  2.92101553E+01  9.28666296E+00  3.16392696E+00  7.86827235E+00
  1.88128854E+00  5.44249258E-01  1.68714478E-01  8.00000000E-01  3.04752488E+03
  4.57369518E+02  1.03948685E+02  2.92101553E+01  9.28666296E+00  3.16392696E+00
  7.86827235E+00  1.88128854E+00  5.44249258E-01  1.68714478E-01  8.00000000E-01
  3.04752488E+03  4.57369518E+02  1.03948685E+02  2.92101553E+01  9.28666296E+00
  3.16392696E+00  7.86827235E+00  1.88128854E+00  5.44249258E-01  1.68714478E-01
  8.00000000E-01  3.04752488E+03  4.57369518E+02  1.03948685E+02  2.92101553E+01
  9.28666296E+00  3.16392696E+00  7.86827235E+00  1.88128854E+00  5.44249258E-01
  1.68714478E-01  8.00000000E-01  1.87311370E+01  2.82539436E+00  6.40121692E-01
  1.61277759E-01  1.87311370E+01  2.82539436E+00  6.40121692E-01  1.61277759E-01
  1.87311370E+01  2.82539436E+00  6.40121692E-01  1.61277759E-01  1.87311370E+01
  2.82539436E+00  6.40121692E-01  1.61277759E-01  1.87311370E+01  2.82539436E+00
  6.40121692E-01  1.61277759E-01  1.87311370E+01  2.82539436E+00  6.40121692E-01
  1.61277759E-01  1.87311370E+01  2.82539436E+00  6.40121692E-01  1.61277759E-01
  1.87311370E+01  2.82539436E+00  6.40121692E-01  1.61277759E-01
Contraction coefficients                   R   N=         109
  1.83473713E-03  1.40373228E-02  6.88426223E-02  2.32184443E-01  4.67941348E-01
  3.62311985E-01 -1.19332420E-01 -1.60854152E-01  1.14345644E+00  1.00000000E+00
  1.00000000E+00  1.83473713E-03  1.40373228E-02  6.88426223E-02  2.32184443E-01
  4.67941348E-01  3.62311985E-01 -1.19332420E-01 -1.60854152E-01  1.14345644E+00
  1.00000000E+00  1.00000000E+00  1.83473713E-03  1.40373228E-02  6.88426223E-02
  2.32184443E-01  4.67941348E-01  3.62311985E-01 -1.19332420E-01 -1.60854152E-01
  1.14345644E+00  1.00000000E+00  1.00000000E+00  1.83473713E-03  1.40373228E-02
  6.88426223E-02  2.32184443E-01  4.67941348E-01  3.62311985E-01 -1.19332420E-01
 -1.60854152E-01  1.14345644E+00  1.00000000E+00  1.00000000E+00  1.83473713E-03
  1.40373228E-02  6.88426223E-02  2.32184443E-01  4.67941348E-01  3.62311985E-01
 -1.19332420E-01 -1.60854152E-01  1.14345644E+00  1.00000000E+00  1.00000000E+00
  1.83473713E-03  1.40373228E-02  6.88426223E-02  2.32184443E-01  4.67941348E-01
  3.62311985E-01 -1.19332420E-01 -1.60854152E-01  1.14345644E+00  1.00000000E+00
  1.00000000E+00  1.83473713E-03  1.40373228E-02  6.88426223E-02  2.32184443E-01
  4.67941348E-01  3.62311985E-01 -1.19332420E-01 -1.60854152E-01  1.14345644E+00
  1.00000000E+00  1.00000000E+00  3.34946043E-02  2.34726953E-01  8.13757326E-01
  1.00000000E+00  3.34946043E-02  2.34726953E-01  8.13757326E-01  1.00000000E+00
  3.34946043E-02  2.34726953E-01  8.13757326E-01  1.00000000E+00  3.34946043E-02
  2.34726953E-01  8.13757326E-01  1.00000000E+00  3.34946043E-02  2.34726953E-01
  8.13757326E-01  1.00000000E+00  3.34946043E-02  2.34726953E-01  8.13757326E-01
  1.00000000E+00  3.34946043E-02  2.34726953E-01  8.13757326E-01  1.00000000E+00
  3.34946043E-02  2.34726953E-01  8.13757326E-01  1.00000000E+00
P(S=P) Contraction coefficients            R   N=         109
  0.00000000E+00  0.00000000E+00  0.00000000E+00  0.00000000E+00  0.00000000E+00
  0.00000000E+00  6.89990666E-02  3.16423961E-01  7.44308291E-01  1.00000000E+00
  0.00000000E+00  0.00000000E+00  0.00000000E+00  0.00000000E+00  0.00000000E+00
  0.00000000E+00  0.00000000E+00  6.89990666E-02  3.16423961E-01  7.44308291E-01
  1.00000000E+00  0.00000000E+00  0.00000000E+00  0.00000000E+00  0.00000000E+00
  0.00000000E+00  0.00000000E+00  0.00000000E+00  6.89990666E-02  3.16423961E-01
  7.44308291E-01  1.00000000E+00  0.00000000E+00  0.00000000E+00  0.00000000E+00
  0.00000000E+00  0.00000000E+00  0.00000000E+00  0.00000000E+00  6.89990666E-02
  3.16423961E-01  7.44308291E-01  1.00000000E+00  0.00000000E+00  0.00000000E+00
  0.00000000E+00  0.00000000E+00  0.00000000E+00  0.00000000E+00  0.00000000E+00
  6.89990666E-02  3.16423961E-01  7.44308291E-01  1.00000000E+00  0.00000000E+00
  0.00000000E+00  0.00000000E+00  0.00000000E+00  0.00000000E+00  0.00000000E+00
  0.00000000E+00  6.89990666E-02  3.16423961E-01  7.44308291E-01  1.00000000E+00
  0.00000000E+00  0.00000000E+00  0.00000000E+00  0.00000000E+00  0.00000000E+00
  0.00000000E+00  0.00000000E+00  6.89990666E-02  3.16423961E-01  7.44308291E-01
  1.00000000E+00  0.00000000E+00  0.00000000E+00  0.00000000E+00  0.00000000E+00
  0.00000000E+00  0.00000000E+00  0.00000000E+00  0.00000000E+00  0.00000000E+00
  0.00000000E+00  0.00000000E+00  0.00000000E+00  0.00000000E+00  0.00000000E+00
  0.00000000E+00  0.00000000E+00  0.00000000E+00  0.00000000E+00  0.00000000E+00
  0.00000000E+00  0.00000000E+00  0.00000000E+00  0.00000000E+00  0.00000000E+00
  0.00000000E+00  0.00000000E+00  0.00000000E+00  0.00000000E+00  0.00000000E+00
  0.00000000E+00  0.00000000E+00  0.00000000E+00  0.00000000E+00
Coordinates of each shell                  R   N=         132
  4.82991625E-01 -2.67916089E+00  1.28665972E+00  4.82991625E-01 -2.67916089E+00
  1.28665972E+00  4.82991625E-01 -2.67916089E+00  1.28665972E+00  4.82991625E-01
 -2.67916089E+00  1.28665972E+00  4.82991625E-01 -2.67916089E+00 -1.28665972E+00
  4.82991625E-01 -2.67916089E+00 -1.28665972E+00  4.82991625E-01 -2.67916089E+00
 -1.28665972E+00  4.82991625E-01 -2.67916089E+00 -1.28665972E+00 -4.70184346E-01
 -6.80607317E-01 -2.88657934E+00 -4.70184346E-01 -6.80607317E-01 -2.88657934E+00
 -4.70184346E-01 -6.80607317E-01 -2.88657934E+00 -4.70184346E-01 -6.80607317E-01
 -2.88657934E+00 -4.70184346E-01 -6.80607317E-01  2.88657934E+00 -4.70184346E-01
 -6.80607317E-01  2.88657934E+00 -4.70184346E-01 -6.80607317E-01  2.88657934E+00
 -4.70184346E-01 -6.80607317E-01  2.88657934E+00 -4.70184346E-01  1.79894203E+00
 -2.30800756E+00 -4.70184346E-01  1.79894203E+00 -2.30800756E+00 -4.70184346E-01
  1.79894203E+00 -2.30800756E+00 -4.70184346E-01  1.79894203E+00 -2.30800756E+00
 -4.70184346E-01  1.79894203E+00  2.30800756E+00 -4.70184346E-01  1.79894203E+00
  2.30800756E+00 -4.70184346E-01  1.79894203E+00  2.30800756E+00 -4.70184346E-01
  1.79894203E+00  2.30800756E+00  8.62673510E-01  2.80615283E+00  0.00000000E+00
  8.62673510E-01  2.80615283E+00  0.00000000E+00  8.62673510E-01  2.80615283E+00
  0.00000000E+00  8.62673510E-01  2.80615283E+00  0.00000000E+00  1.01682792E+00
 -4.42605963E+00  2.22596132E+00  1.01682792E+00 -4.42605963E+00  2.22596132E+00
  1.01682792E+00 -4.42605963E+00 -2.22596132E+00  1.01682792E+00 -4.42605963E+00
 -2.22596132E+00 -1.28640620E+00 -1.26503158E+00 -4.67945701E+00 -1.28640620E+00
 -1.26503158E+00 -4.67945701E+00 -1.28640620E+00 -1.26503158E+00  4.67945701E+00
 -1.28640620E+00 -1.26503158E+00  4.67945701E+00 -1.43173936E+00  3.12619873E+00
 -3.54311934E+00 -1.43173936E+00  3.12619873E+00 -3.54311934E+00 -1.43173936E+00
  3.12619873E+00  3.54311934E+00 -1.43173936E+00  3.12619873E+00  3.54311934E+00
  2.83297001E+00  2.15488328E+00  0.00000000E+00  2.83297001E+00  2.15488328E+00
  0.00000000E+00  8.82149028E-01  4.86789884E+00  0.00000000E+00  8.82149028E-01
  4.86789884E+00  0.00000000E+00
Constraint Structure                       R   N=          45
  4.82991625E-01 -2.67916089E+00  1.28665972E+00  4.82991625E-01 -2.67916089E+00
 -1.28665972E+00 -4.70184346E-01 -6.80607317E-01 -2.88657934E+00 -4.70184346E-01
 -6.80607317E-01  2.88657934E+00 -4.70184346E-01  1.79894203E+00 -2.30800756E+00
 -4.70184346E-01  1.79894203E+00  2.30800756E+00  8.62673510E-01  2.80615283E+00
  0.00000000E+00  1.01682792E+00 -4.42605963E+00  2.22596132E+00  1.01682792E+00
 -4.42605963E+00 -2.22596132E+00 -1.28640620E+00 -1.26503158E+00 -4.67945701E+00
 -1.28640620E+00 -1.26503158E+00  4.67945701E+00 -1.43173936E+00  3.12619873E+00
 -3.54311934E+00 -1.43173936E+00  3.12619873E+00  3.54311934E+00  2.83297001E+00
  2.15488328E+00  0.00000000E+00  8.82149028E-01  4.86789884E+00  0.00000000E+00
Num ILSW                                   I              100
ILSW                                       I   N=         100
           0           1           0           0           2           0
           0           0           0           0         402          -1
           0           0           0           0           0           0
           0           0           1           0           0           0
           1           0           0           0           0           0
           0           0      100000           0          -1           0
           0           0           0           0           0           0
           0           0           0           1           0           0
           0           0           1           0           0           0
           0           0           4          40           0           0
           0           0           5           0           0           0
           0           0           0           0           0           0
           0           0           0           0           0           0
           0           0           0           0           0           0
           0           0           0           0           0           0
           0           0           0           0           0           0
           0           0           0           0
Num RLSW                                   I               40
RLSW                                       R   N=          40
  8.00000000E-01  7.20000000E-01  1.00000000E+00  8.10000000E-01  2.00000000E-01
  0.00000000E+00  0.00000000E+00  1.00000000E+00  0.00000000E+00  0.00000000E+00
  0.00000000E+00  0.00000000E+00  1.00000000E+00  0.00000000E+00  0.00000000E+00
  0.00000000E+00  0.00000000E+00  1.00000000E+00  0.00000000E+00  0.00000000E+00
  0.00000000E+00  0.00000000E+00  1.00000000E+00  0.00000000E+00  0.00000000E+00
  0.00000000E+00  0.00000000E+00  1.00000000E+00  0.00000000E+00  0.00000000E+00
  0.00000000E+00  0.00000000E+00  0.00000000E+00  0.00000000E+00  0.00000000E+00
  0.00000000E+00  0.00000000E+00  0.00000000E+00  1.00000000E+00  1.00000000E+00
MxBond                                     I                4
NBond                                      I   N=          15
           3           3           3           3           3           3
           4           1           1           1           1           1
           1           1           1
IBond                                      I   N=          60
           2           4           8           0           1           3
           9           0           2           5          10           0
           1           6          11           0           3           7
          12           0           4           7          13           0
           5           6          14          15           1           0
           0           0           2           0           0           0
           3           0           0           0           4           0
           0           0           5           0           0           0
           6           0           0           0           7           0
           0           0           7           0           0           0
RBond                                      R   N=          60
  2.00000000E+00  1.00000000E+00  1.00000000E+00  0.00000000E+00  2.00000000E+00
  1.00000000E+00  1.00000000E+00  0.00000000E+00  1.00000000E+00  2.00000000E+00
  1.00000000E+00  0.00000000E+00  1.00000000E+00  2.00000000E+00  1.00000000E+00
  0.00000000E+00  2.00000000E+00  1.00000000E+00  1.00000000E+00  0.00000000E+00
  2.00000000E+00  1.00000000E+00  1.00000000E+00  0.00000000E+00  1.00000000E+00
  1.00000000E+00  1.00000000E+00  1.00000000E+00  1.00000000E+00  0.00000000E+00
  0.00000000E+00  0.00000000E+00  1.00000000E+00  0.00000000E+00  0.00000000E+00
  0.00000000E+00  1.00000000E+00  0.00000000E+00  0.00000000E+00  0.00000000E+00
  1.00000000E+00  0.00000000E+00  0.00000000E+00  0.00000000E+00  1.00000000E+00
  0.00000000E+00  0.00000000E+00  0.00000000E+00  1.00000000E+00  0.00000000E+00
  0.00000000E+00  0.00000000E+00  1.00000000E+00  0.00000000E+00  0.00000000E+00
  0.00000000E+00  1.00000000E+00  0.00000000E+00  0.00000000E+00  0.00000000E+00
Virial Ratio                               R      2.009841196467190E+00
SCF Energy                                 R     -2.715094953574978E+02
Total Energy                               R     -2.715094953574978E+02
RMS Density                                R      3.033488795647248E-09
External E-field                           R   N=          35
  0.00000000E+00  0.00000000E+00  0.00000000E+00  0.00000000E+00  0.00000000E+00
  0.00000000E+00  0.00000000E+00  0.00000000E+00  0.00000000E+00  0.00000000E+00
  0.00000000E+00  0.00000000E+00  0.00000000E+00  0.00000000E+00  0.00000000E+00
  0.00000000E+00  0.00000000E+00  0.00000000E+00  0.00000000E+00  0.00000000E+00
  0.00000000E+00  0.00000000E+00  0.00000000E+00  0.00000000E+00  0.00000000E+00
  0.00000000E+00  0.00000000E+00  0.00000000E+00  0.00000000E+00  0.00000000E+00
  0.00000000E+00  0.00000000E+00  0.00000000E+00  0.00000000E+00  0.00000000E+00
IOpCl                                      I                0
IROHF                                      I                0
Alpha Orbital Energies                     R   N=         121
 -1.01883575E+01 -1.01883540E+01 -1.01867478E+01 -1.01860407E+01 -1.01857887E+01
 -1.01804089E+01 -1.01804039E+01 -8.33929173E-01 -7.59464029E-01 -7.58929673E-01
 -6.55620218E-01 -6.23984088E-01 -5.31243879E-01 -5.06665487E-01 -4.95414360E-01
 -4.42514375E-01 -4.41145718E-01 -4.20142519E-01 -3.70972051E-01 -3.70056987E-01
 -3.49963253E-01 -3.36588015E-01 -3.07275407E-01 -2.48535166E-01 -2.13079986E-01
 -2.71754650E-02  2.83274931E-02  8.88642040E-02  1.04886783E-01  1.32868334E-01
  1.33235961E-01  1.53610253E-01  1.88584888E-01  1.90849530E-01  1.99746514E-01
  2.09205226E-01  2.36441054E-01  2.79587127E-01  3.39934027E-01  3.42335310E-01
  3.86558434E-01  4.00018546E-01  4.88425512E-01  4.92307747E-01  5.26431374E-01
  5.39758834E-01  5.54891396E-01  5.78159695E-01  5.88498489E-01  5.98712848E-01
  6.29096544E-01  6.30425068E-01  6.46682546E-01  6.69535395E-01  6.82407923E-01
  6.94860034E-01  7.12119036E-01  7.51532778E-01  8.04775164E-01  8.42524214E-01
  8.51036676E-01  8.53463625E-01  8.60010390E-01  8.80797726E-01  8.97667196E-01
  9.08122069E-01  9.23702524E-01  9.61751276E-01  9.65094283E-01  9.90674332E-01
  1.05241295E+00  1.10575358E+00  1.10711860E+00  1.11603624E+00  1.18131352E+00
  1.18651186E+00  1.36679224E+00  1.37888985E+00  1.39129445E+00  1.46601662E+00
  1.52110098E+00  1.54846564E+00  1.57325413E+00  1.59849026E+00  1.65894873E+00
  1.76253048E+00  1.77183431E+00  1.84973056E+00  1.92134619E+00  1.92754575E+00
  1.94584274E+00  1.97664795E+00  2.00937118E+00  2.03476777E+00  2.06949421E+00
  2.12007487E+00  2.19887691E+00  2.20004726E+00  2.22820899E+00  2.26621314E+00
  2.29636043E+00  2.35553374E+00  2.42534208E+00  2.52569242E+00  2.54105995E+00
  2.55912919E+00  2.59919972E+00  2.62100083E+00  2.71026810E+00  2.73098418E+00
  2.79882490E+00  2.96260587E+00  2.97987959E+00  3.22651653E+00  4.08098512E+00
  4.16256421E+00  4.17307865E+00  4.27971436E+00  4.33224752E+00  4.51009380E+00
  4.59268845E+00
Alpha MO coefficients                      R   N=       14641
  2.70869926E-03  3.68244586E-05  2.75072700E-05 -6.27993593E-05  2.88589675E-06
  1.98270840E-04 -1.28213510E-04  1.16223870E-04  1.22466155E-04 -6.53397281E-05
 -8.46700912E-06 -2.75442878E-05 -1.48089396E-05 -3.00568273E-05  1.53907190E-05
  2.70869926E-03  3.68244586E-05  2.75072700E-05 -6.27993593E-05 -2.88589675E-06
  1.98270840E-04 -1.28213510E-04  1.16223870E-04 -1.22466155E-04 -6.53397281E-05
 -8.46700912E-06 -2.75442878E-05 -1.48089396E-05  3.00568273E-05 -1.53907190E-05
  3.46419400E-02  1.32202409E-03 -5.46943322E-06 -2.88976605E-04 -1.02684612E-04
  3.19304565E-03  8.97144833E-05  1.83395446E-03  4.03727095E-04 -4.84056269E-04
 -5.37395256E-04 -4.88012622E-04  3.34453289E-05 -1.55644290E-05 -2.45801487E-06
  3.46419400E-02  1.32202409E-03 -5.46943322E-06 -2.88976605E-04  1.02684612E-04
  3.19304565E-03  8.97144833E-05  1.83395446E-03 -4.03727095E-04 -4.84056269E-04
 -5.37395256E-04 -4.88012622E-04  3.34453289E-05  1.55644290E-05  2.45801487E-06
  6.99356363E-01  3.44553703E-02  2.26183634E-06 -4.22184043E-05  8.09165907E-05
 -8.52197054E-03 -1.61249114E-04  1.37382221E-03  6.55967931E-04 -6.82068434E-03
 -6.52260111E-03 -6.56453627E-03 -1.23273161E-05  9.64593384E-05  3.37428010E-05
  6.99356363E-01  3.44553703E-02  2.26183634E-06 -4.22184043E-05 -8.09165907E-05
 -8.52197054E-03 -1.61249114E-04  1.37382221E-03 -6.55967931E-04 -6.82068434E-03
 -6.52260111E-03 -6.56453627E-03 -1.23273161E-05 -9.64593384E-05 -3.37428010E-05
  6.92434209E-02  3.70629000E-03  1.22318399E-04  5.36595700E-05  0.00000000E+00
  3.47120709E-04  2.42741218E-04 -2.77725520E-04  0.00000000E+00 -7.71297560E-04
 -6.92562036E-04 -1.09711987E-03 -1.67266825E-04  0.00000000E+00  0.00000000E+00
 -3.80410053E-06  1.31122264E-04 -3.80410053E-06  1.31122264E-04 -5.63021240E-05
  1.91802732E-04 -5.63021240E-05  1.91802732E-04 -3.00677247E-04  1.31794641E-03
 -3.00677247E-04  1.31794641E-03 -1.78495023E-04  3.76923691E-04 -9.33498643E-06
  1.28039851E-04 -2.74810483E-03 -1.46800345E-04 -3.02292361E-05  5.72996281E-05
  2.56040362E-05  2.09397973E-03 -2.31470186E-04  1.12352409E-03 -2.62568625E-04
  2.90115180E-05  1.09716212E-05  4.69877377E-05 -7.71139787E-06  3.39594636E-05
  2.70478567E-05  2.74810483E-03  1.46800345E-04  3.02292361E-05 -5.72996281E-05
  2.56040362E-05 -2.09397973E-03  2.31470186E-04 -1.12352409E-03 -2.62568625E-04
 -2.90115180E-05 -1.09716212E-05 -4.69877377E-05  7.71139787E-06  3.39594636E-05
  2.70478567E-05  3.48017449E-02  1.17882177E-03 -6.42106796E-05 -2.44854178E-04
 -9.74779165E-05  5.38155548E-03  9.58103125E-04  1.57409682E-03  2.35308286E-03
 -4.82371132E-04 -6.04065052E-04 -4.55760477E-04  1.43638106E-05  1.83909688E-05
  8.59725723E-06 -3.48017449E-02 -1.17882177E-03  6.42106796E-05  2.44854178E-04
 -9.74779165E-05 -5.38155548E-03 -9.58103125E-04 -1.57409682E-03  2.35308286E-03
  4.82371132E-04  6.04065052E-04  4.55760477E-04 -1.43638106E-05  1.83909688E-05
  8.59725723E-06  7.01248266E-01  3.53891578E-02 -1.16934302E-05 -7.81592848E-10
  3.08753053E-04 -1.36598816E-02 -1.20562018E-03  1.42872733E-03 -2.46718725E-03
 -6.44442170E-03 -6.23218842E-03 -6.56949581E-03 -8.90370161E-05  6.77876257E-05
  7.47790026E-05 -7.01248266E-01 -3.53891578E-02  1.16934302E-05  7.81592848E-10
  3.08753053E-04  1.36598816E-02  1.20562018E-03 -1.42872733E-03 -2.46718725E-03
  6.44442170E-03  6.23218842E-03  6.56949581E-03  8.90370161E-05  6.77876257E-05
  7.47790026E-05  0.00000000E+00  0.00000000E+00  0.00000000E+00  0.00000000E+00
  1.32920994E-04  0.00000000E+00  0.00000000E+00  0.00000000E+00 -3.39273473E-03
  0.00000000E+00  0.00000000E+00  0.00000000E+00  0.00000000E+00 -2.35009187E-04
  1.60372053E-05  2.68149613E-05  1.62956403E-04 -2.68149613E-05 -1.62956403E-04
  3.64077905E-05  7.07076050E-04 -3.64077905E-05 -7.07076050E-04 -2.93817505E-04
  9.45587819E-04  2.93817505E-04 -9.45587819E-04  0.00000000E+00  0.00000000E+00
  0.00000000E+00  0.00000000E+00  7.01533617E-01  3.45935443E-02 -5.40798100E-05
  7.79476787E-05  2.23885256E-04 -7.43325768E-03  3.75185226E-04 -7.06569807E-04
 -8.92896858E-04 -6.82318886E-03 -6.73320711E-03 -6.66576439E-03 -4.34938814E-05
 -6.41526295E-06 -4.04320529E-06  7.01533617E-01  3.45935443E-02 -5.40798100E-05
  7.79476787E-05 -2.23885256E-04 -7.43325768E-03  3.75185226E-04 -7.06569807E-04
  8.92896858E-04 -6.82318886E-03 -6.73320711E-03 -6.66576439E-03 -4.34938814E-05
  6.41526295E-06  4.04320529E-06  2.05752366E-02  7.48840448E-04 -6.93433426E-05
  1.99156755E-04 -1.78870382E-04  2.80175131E-03  5.01852295E-04 -1.01544509E-03
  1.28462467E-03 -3.55289427E-04 -4.85957161E-04 -3.11591360E-04  9.00783185E-05
 -4.51746943E-05  8.49986481E-05  2.05752366E-02  7.48840448E-04 -6.93433426E-05
  1.99156755E-04  1.78870382E-04  2.80175131E-03  5.01852295E-04 -1.01544509E-03
 -1.28462467E-03 -3.55289427E-04 -4.85957161E-04 -3.11591360E-04  9.00783185E-05
  4.51746943E-05 -8.49986481E-05 -3.57408261E-03 -2.01463726E-04 -3.18525388E-05
  1.49859164E-05 -4.44359939E-05 -7.61472590E-04 -2.83921233E-04  7.69713434E-05
 -7.21028700E-04  3.01754570E-06  9.68555583E-05  1.29194207E-05  1.15148908E-05
 -7.16100294E-06  3.35676048E-05 -3.57408261E-03 -2.01463726E-04 -3.18525388E-05
  1.49859164E-05  4.44359939E-05 -7.61472590E-04 -2.83921233E-04  7.69713434E-05
  7.21028700E-04  3.01754570E-06  9.68555583E-05  1.29194207E-05  1.15148908E-05
  7.16100294E-06 -3.35676048E-05 -3.96299091E-03 -4.09388994E-04  2.36246067E-05
  1.50386612E-04  0.00000000E+00  1.43564372E-03 -5.98275248E-04 -1.09483116E-03
  0.00000000E+00  1.43468469E-06 -5.68707890E-05 -2.05594401E-06  3.90182300E-05
  0.00000000E+00  0.00000000E+00 -2.61694548E-04  1.31684152E-03 -2.61694548E-04
  1.31684152E-03 -4.70241517E-05  2.39241398E-04 -4.70241517E-05  2.39241398E-04
 -1.38260185E-05 -1.15908267E-04 -1.38260185E-05 -1.15908267E-04 -2.30148023E-04
  3.90775593E-04  4.79654815E-05  4.10535836E-04  7.01772084E-01  3.54019763E-02
 -1.03555372E-04  1.33105871E-04 -2.95173361E-04 -1.58252124E-02  1.18205164E-03
 -2.43748473E-03  2.60380138E-03 -6.60448661E-03 -6.43606804E-03 -6.10591083E-03
 -6.54578771E-05 -7.35317183E-05  9.98601927E-05 -7.01772084E-01 -3.54019763E-02
  1.03555372E-04 -1.33105871E-04 -2.95173361E-04  1.58252124E-02 -1.18205164E-03