 b3lyp/6-31G** opted                                     
GAUSSIAN              9 MOL ORBITALS     98 PRIMITIVES        8 NUCLEI
  C    1    (CENTRE  1)   0.00000000  0.00000000  1.44576079  CHARGE =  6.0
  H    2    (CENTRE  2)   0.00000000  1.92758504  2.19985439  CHARGE =  1.0
  H    3    (CENTRE  3)   1.66933761 -0.96379252  2.19985439  CHARGE =  1.0
  H    4    (CENTRE  4)  -1.66933761 -0.96379252  2.19985439  CHARGE =  1.0
  C    5    (CENTRE  5)   0.00000000  0.00000000 -1.44576079  CHARGE =  6.0
  H    6    (CENTRE  6)   0.00000000 -1.92758504 -2.19985439  CHARGE =  1.0
  H    7    (CENTRE  7)  -1.66933761  0.96379252 -2.19985439  CHARGE =  1.0
  H    8    (CENTRE  8)   1.66933761  0.96379252 -2.19985439  CHARGE =  1.0
CENTRE ASSIGNMENTS    1  1  1  1  1  1  1  1  1  1  1  1  1  1  1  1  1  1  1  1
CENTRE ASSIGNMENTS    1  1  1  1  1  1  1  1  2  2  2  2  2  2  2  3  3  3  3  3
CENTRE ASSIGNMENTS    3  3  4  4  4  4  4  4  4  5  5  5  5  5  5  5  5  5  5  5
CENTRE ASSIGNMENTS    5  5  5  5  5  5  5  5  5  5  5  5  5  5  5  5  5  6  6  6
CENTRE ASSIGNMENTS    6  6  6  6  7  7  7  7  7  7  7  8  8  8  8  8  8  8
TYPE ASSIGNMENTS      1  1  1  1  1  1  1  1  1  2  2  2  3  3  3  4  4  4  1  2
TYPE ASSIGNMENTS      3  4  5  6  7  8  9 10  1  1  1  1  2  3  4  1  1  1  1  2
TYPE ASSIGNMENTS      3  4  1  1  1  1  2  3  4  1  1  1  1  1  1  1  1  1  2  2
TYPE ASSIGNMENTS      2  3  3  3  4  4  4  1  2  3  4  5  6  7  8  9 10  1  1  1
TYPE ASSIGNMENTS      1  2  3  4  1  1  1  1  2  3  4  1  1  1  1  2  3  4
EXPONENTS  0.3047525D+04 0.4573695D+03 0.1039487D+03 0.2921016D+02 0.9286663D+01
EXPONENTS  0.3163927D+01 0.7868272D+01 0.1881289D+01 0.5442493D+00 0.7868272D+01
EXPONENTS  0.1881289D+01 0.5442493D+00 0.7868272D+01 0.1881289D+01 0.5442493D+00
EXPONENTS  0.7868272D+01 0.1881289D+01 0.5442493D+00 0.1687145D+00 0.1687145D+00
EXPONENTS  0.1687145D+00 0.1687145D+00 0.8000000D+00 0.8000000D+00 0.8000000D+00
EXPONENTS  0.8000000D+00 0.8000000D+00 0.8000000D+00 0.1873114D+02 0.2825394D+01
EXPONENTS  0.6401217D+00 0.1612778D+00 0.1100000D+01 0.1100000D+01 0.1100000D+01
EXPONENTS  0.1873114D+02 0.2825394D+01 0.6401217D+00 0.1612778D+00 0.1100000D+01
EXPONENTS  0.1100000D+01 0.1100000D+01 0.1873114D+02 0.2825394D+01 0.6401217D+00
EXPONENTS  0.1612778D+00 0.1100000D+01 0.1100000D+01 0.1100000D+01 0.3047525D+04
EXPONENTS  0.4573695D+03 0.1039487D+03 0.2921016D+02 0.9286663D+01 0.3163927D+01
EXPONENTS  0.7868272D+01 0.1881289D+01 0.5442493D+00 0.7868272D+01 0.1881289D+01
EXPONENTS  0.5442493D+00 0.7868272D+01 0.1881289D+01 0.5442493D+00 0.7868272D+01
EXPONENTS  0.1881289D+01 0.5442493D+00 0.1687145D+00 0.1687145D+00 0.1687145D+00
EXPONENTS  0.1687145D+00 0.8000000D+00 0.8000000D+00 0.8000000D+00 0.8000000D+00
EXPONENTS  0.8000000D+00 0.8000000D+00 0.1873114D+02 0.2825394D+01 0.6401217D+00
EXPONENTS  0.1612778D+00 0.1100000D+01 0.1100000D+01 0.1100000D+01 0.1873114D+02
EXPONENTS  0.2825394D+01 0.6401217D+00 0.1612778D+00 0.1100000D+01 0.1100000D+01
EXPONENTS  0.1100000D+01 0.1873114D+02 0.2825394D+01 0.6401217D+00 0.1612778D+00
EXPONENTS  0.1100000D+01 0.1100000D+01 0.1100000D+01
MO    1     MO 0.0        OCC NO =    2.0000000  ORB. ENERGY =  -10.172685
  0.37653225D+00  0.69462848D+00  0.11213457D+01  0.14596590D+01  0.12455296D+01
  0.43005145D+00 -0.13962777D-01 -0.64354312D-02  0.18045621D-01  0.00000000D+00
  0.00000000D+00  0.00000000D+00 -0.30934160D-15 -0.23718352D-15 -0.11837120D-15
  0.21098033D-03  0.16176633D-03  0.80732737D-04 -0.16396390D-02  0.00000000D+00
  0.22698322D-15 -0.13057080D-03 -0.71237523D-02 -0.71237523D-02 -0.75249264D-02
  0.00000000D+00  0.00000000D+00  0.10613346D-15 -0.42744818D-04 -0.72503301D-04
 -0.82542446D-04  0.34595898D-03  0.00000000D+00  0.17976934D-03  0.46980463D-05
 -0.42744818D-04 -0.72503301D-04 -0.82542446D-04  0.34595898D-03  0.15568482D-03
 -0.89884671D-04  0.46980463D-05 -0.42744818D-04 -0.72503301D-04 -0.82542446D-04
  0.34595898D-03 -0.15568482D-03 -0.89884671D-04  0.46980463D-05  0.37653225D+00
  0.69462848D+00  0.11213457D+01  0.14596590D+01  0.12455296D+01  0.43005145D+00
 -0.13962777D-01 -0.64354312D-02  0.18045621D-01  0.00000000D+00  0.00000000D+00
  0.00000000D+00  0.30934160D-15  0.23718352D-15  0.11837120D-15 -0.21098033D-03
 -0.16176633D-03 -0.80732737D-04 -0.16396390D-02  0.00000000D+00 -0.22698322D-15
  0.13057080D-03 -0.71237523D-02 -0.71237523D-02 -0.75249264D-02  0.00000000D+00
  0.00000000D+00  0.10613346D-15 -0.42744818D-04 -0.72503301D-04 -0.82542446D-04
  0.34595898D-03  0.00000000D+00 -0.17976934D-03 -0.46980463D-05 -0.42744818D-04
 -0.72503301D-04 -0.82542446D-04  0.34595898D-03 -0.15568482D-03  0.89884671D-04
 -0.46980463D-05 -0.42744818D-04 -0.72503301D-04 -0.82542446D-04  0.34595898D-03
  0.15568482D-03  0.89884671D-04 -0.46980463D-05
MO    2     MO 0.0        OCC NO =    2.0000000  ORB. ENERGY =  -10.172473
  0.37662489D+00  0.69479939D+00  0.11216216D+01  0.14600181D+01  0.12458361D+01
  0.43015727D+00 -0.14088858D-01 -0.64935417D-02  0.18208569D-01  0.00000000D+00
  0.00000000D+00  0.00000000D+00  0.77900585D-16  0.59729228D-16  0.29809071D-16
 -0.62935539D-04 -0.48254980D-04 -0.24082617D-04 -0.27870982D-02  0.00000000D+00
  0.12360074D-15  0.33946698D-03 -0.68682923D-02 -0.68682923D-02 -0.68035467D-02
  0.00000000D+00  0.00000000D+00  0.37064659D-15  0.31291376D-05  0.53076097D-05
  0.60425260D-05  0.32502825D-03  0.00000000D+00  0.27746483D-03  0.59613652D-04
  0.31291376D-05  0.53076097D-05  0.60425260D-05  0.32502825D-03  0.24029159D-03
 -0.13873241D-03  0.59613652D-04  0.31291376D-05  0.53076097D-05  0.60425260D-05
  0.32502825D-03 -0.24029159D-03 -0.13873241D-03  0.59613652D-04 -0.37662489D+00
 -0.69479939D+00 -0.11216216D+01 -0.14600181D+01 -0.12458361D+01 -0.43015727D+00
  0.14088858D-01  0.64935417D-02 -0.18208569D-01  0.00000000D+00  0.00000000D+00
  0.00000000D+00  0.77900585D-16  0.59729228D-16  0.29809071D-16 -0.62935539D-04
 -0.48254980D-04 -0.24082617D-04  0.27870982D-02  0.00000000D+00  0.12360074D-15
  0.33946698D-03  0.68682923D-02  0.68682923D-02  0.68035467D-02  0.00000000D+00
  0.00000000D+00 -0.37064659D-15 -0.31291376D-05 -0.53076097D-05 -0.60425260D-05
 -0.32502825D-03  0.00000000D+00  0.27746483D-03  0.59613652D-04 -0.31291376D-05
 -0.53076097D-05 -0.60425260D-05 -0.32502825D-03  0.24029159D-03 -0.13873241D-03
  0.59613652D-04 -0.31291376D-05 -0.53076097D-05 -0.60425260D-05 -0.32502825D-03
 -0.24029159D-03 -0.13873241D-03  0.59613652D-04
MO    3     MO 0.0        OCC NO =    2.0000000  ORB. ENERGY =   -0.747634
 -0.80010055D-01 -0.14760293D+00 -0.23827689D+00 -0.31016571D+00 -0.26466497D+00
 -0.91382453D-01 -0.11434048D+00 -0.52699422D-01  0.14777468D+00  0.00000000D+00
  0.00000000D+00  0.00000000D+00  0.14806429D-14  0.11352630D-14  0.56657582D-15
 -0.76235044D-01 -0.58452197D-01 -0.29171743D-01  0.43729478D-01  0.00000000D+00
 -0.98520558D-15 -0.15372467D-02 -0.10435672D-01 -0.10435672D-01  0.29264407D-02
  0.00000000D+00  0.00000000D+00 -0.55821003D-15  0.18852224D-01  0.31976940D-01
  0.36404615D-01  0.41186606D-02  0.00000000D+00 -0.13218582D-01 -0.62693468D-02
  0.18852224D-01  0.31976940D-01  0.36404615D-01  0.41186606D-02 -0.11447627D-01
  0.66092908D-02 -0.62693468D-02  0.18852224D-01  0.31976940D-01  0.36404615D-01
  0.41186606D-02  0.11447627D-01  0.66092908D-02 -0.62693468D-02 -0.80010055D-01
 -0.14760293D+00 -0.23827689D+00 -0.31016571D+00 -0.26466497D+00 -0.91382453D-01
 -0.11434048D+00 -0.52699422D-01  0.14777468D+00  0.00000000D+00  0.00000000D+00
  0.00000000D+00 -0.14806429D-14 -0.11352630D-14 -0.56657582D-15  0.76235044D-01
  0.58452197D-01  0.29171743D-01  0.43729478D-01  0.00000000D+00  0.98520558D-15
  0.15372467D-02 -0.10435672D-01 -0.10435672D-01  0.29264407D-02  0.00000000D+00
  0.00000000D+00 -0.55821003D-15  0.18852224D-01  0.31976940D-01  0.36404615D-01
  0.41186606D-02  0.00000000D+00  0.13218582D-01  0.62693468D-02  0.18852224D-01
  0.31976940D-01  0.36404615D-01  0.41186606D-02  0.11447627D-01 -0.66092908D-02
  0.62693468D-02  0.18852224D-01  0.31976940D-01  0.36404615D-01  0.41186606D-02
 -0.11447627D-01 -0.66092908D-02  0.62693468D-02
MO    4     MO 0.0        OCC NO =    2.0000000  ORB. ENERGY =   -0.611836
 -0.69735939D-01 -0.12864919D+00 -0.20767968D+00 -0.27033724D+00 -0.23067926D+00
 -0.79648004D-01 -0.10369904D+00 -0.47794793D-01  0.13402159D+00  0.00000000D+00
  0.00000000D+00  0.00000000D+00 -0.24504011D-14 -0.18788121D-14 -0.93765894D-15
  0.16521893D+00  0.12667940D+00  0.63221898D-01  0.47361497D-01  0.00000000D+00
  0.27742220D-16  0.56643122D-02 -0.21170592D-02 -0.21170592D-02 -0.19208978D-01
  0.00000000D+00  0.00000000D+00 -0.18377175D-15  0.25739663D-01  0.43659340D-01
  0.49704616D-01  0.93709477D-02  0.00000000D+00 -0.15191317D-01 -0.29562766D-02
  0.25739663D-01  0.43659340D-01  0.49704616D-01  0.93709477D-02 -0.13156066D-01
  0.75956583D-02 -0.29562766D-02  0.25739663D-01  0.43659340D-01  0.49704616D-01
  0.93709477D-02  0.13156066D-01  0.75956583D-02 -0.29562766D-02  0.69735939D-01
  0.12864919D+00  0.20767968D+00  0.27033724D+00  0.23067926D+00  0.79648004D-01
  0.10369904D+00  0.47794793D-01 -0.13402159D+00  0.00000000D+00  0.00000000D+00
  0.00000000D+00 -0.24504011D-14 -0.18788121D-14 -0.93765894D-15  0.16521893D+00
  0.12667940D+00  0.63221898D-01 -0.47361497D-01  0.00000000D+00  0.27742220D-16
  0.56643122D-02  0.21170592D-02  0.21170592D-02  0.19208978D-01  0.00000000D+00
  0.00000000D+00  0.18377175D-15 -0.25739663D-01 -0.43659340D-01 -0.49704616D-01
 -0.93709477D-02  0.00000000D+00 -0.15191317D-01 -0.29562766D-02 -0.25739663D-01
 -0.43659340D-01 -0.49704616D-01 -0.93709477D-02 -0.13156066D-01  0.75956583D-02
 -0.29562766D-02 -0.25739663D-01 -0.43659340D-01 -0.49704616D-01 -0.93709477D-02
  0.13156066D-01  0.75956583D-02 -0.29562766D-02
MO    5     MO 0.0        OCC NO =    2.0000000  ORB. ENERGY =   -0.429423
  0.00000000D+00  0.00000000D+00  0.00000000D+00  0.00000000D+00  0.00000000D+00
  0.00000000D+00  0.00000000D+00  0.00000000D+00  0.00000000D+00  0.41059756D+00
  0.31482017D+00  0.15711733D+00  0.00000000D+00  0.00000000D+00  0.00000000D+00
  0.00000000D+00  0.00000000D+00  0.00000000D+00  0.00000000D+00  0.21091999D-01
  0.00000000D+00  0.00000000D+00  0.00000000D+00  0.00000000D+00  0.00000000D+00
 -0.21133090D-01  0.18012881D-02  0.00000000D+00  0.00000000D+00  0.00000000D+00
  0.00000000D+00  0.00000000D+00  0.94719460D-02  0.00000000D+00  0.00000000D+00
  0.33189284D-01  0.56295307D-01  0.64090217D-01  0.22682926D-01 -0.20471533D-02
  0.66505551D-02 -0.67431114D-02 -0.33189284D-01 -0.56295307D-01 -0.64090217D-01
 -0.22682926D-01 -0.20471533D-02 -0.66505551D-02  0.67431114D-02  0.00000000D+00
  0.00000000D+00  0.00000000D+00  0.00000000D+00  0.00000000D+00  0.00000000D+00
  0.00000000D+00  0.00000000D+00  0.00000000D+00  0.41059756D+00  0.31482017D+00
  0.15711733D+00  0.00000000D+00  0.00000000D+00  0.00000000D+00  0.00000000D+00
  0.00000000D+00  0.00000000D+00  0.00000000D+00  0.21091999D-01  0.00000000D+00
  0.00000000D+00  0.00000000D+00  0.00000000D+00  0.00000000D+00  0.21133090D-01
 -0.18012881D-02  0.00000000D+00  0.00000000D+00  0.00000000D+00  0.00000000D+00
  0.00000000D+00  0.94719460D-02  0.00000000D+00  0.00000000D+00 -0.33189284D-01
 -0.56295307D-01 -0.64090217D-01 -0.22682926D-01 -0.20471533D-02  0.66505551D-02
 -0.67431114D-02  0.33189284D-01  0.56295307D-01  0.64090217D-01  0.22682926D-01
 -0.20471533D-02 -0.66505551D-02  0.67431114D-02
MO    6     MO 0.0        OCC NO =    2.0000000  ORB. ENERGY =   -0.429423
 -0.41205109D-15 -0.76015380D-15 -0.12271239D-14 -0.15973507D-14 -0.13630223D-14
 -0.47061884D-15  0.55903305D-15  0.25765782D-15 -0.72249943D-15  0.00000000D+00
  0.00000000D+00  0.00000000D+00  0.41059756D+00  0.31482017D+00  0.15711733D+00
 -0.74449116D-15 -0.57082860D-15 -0.28488348D-15  0.33005817D-15  0.00000000D+00
  0.21091999D-01  0.43449267D-14 -0.10566545D-01  0.10566545D-01 -0.19509458D-14
  0.00000000D+00  0.00000000D+00  0.18012881D-02  0.38323684D-01  0.65004221D-01
  0.74005008D-01  0.26191987D-01  0.00000000D+00 -0.58868531D-02 -0.77862744D-02
 -0.19161842D-01 -0.32502111D-01 -0.37002504D-01 -0.13095993D-01  0.66505551D-02
  0.56322462D-02  0.38931372D-02 -0.19161842D-01 -0.32502111D-01 -0.37002504D-01
 -0.13095993D-01 -0.66505551D-02  0.56322462D-02  0.38931372D-02  0.41205109D-15
  0.76015380D-15  0.12271239D-14  0.15973507D-14  0.13630223D-14  0.47061884D-15
 -0.55903305D-15 -0.25765782D-15  0.72249943D-15  0.00000000D+00  0.00000000D+00
  0.00000000D+00  0.41059756D+00  0.31482017D+00  0.15711733D+00 -0.74449116D-15
 -0.57082860D-15 -0.28488348D-15 -0.33005817D-15  0.00000000D+00  0.21091999D-01
  0.43449267D-14  0.10566545D-01 -0.10566545D-01  0.19509458D-14  0.00000000D+00
  0.00000000D+00 -0.18012881D-02 -0.38323684D-01 -0.65004221D-01 -0.74005008D-01
 -0.26191987D-01  0.00000000D+00 -0.58868531D-02 -0.77862744D-02  0.19161842D-01
  0.32502111D-01  0.37002504D-01  0.13095993D-01  0.66505551D-02  0.56322462D-02
  0.38931372D-02  0.19161842D-01  0.32502111D-01  0.37002504D-01  0.13095993D-01
 -0.66505551D-02  0.56322462D-02  0.38931372D-02
MO    7     MO 0.0        OCC NO =    2.0000000  ORB. ENERGY =   -0.363053
  0.97245122D-02  0.17939826D-01  0.28960442D-01  0.37697891D-01  0.32167678D-01
  0.11106726D-01  0.16886116D-01  0.77827955D-02 -0.21823771D-01  0.00000000D+00
  0.00000000D+00  0.00000000D+00  0.23830149D-14  0.18271447D-14  0.91187326D-15
  0.53316338D+00  0.40879586D+00  0.20401779D+00 -0.10881679D-01  0.00000000D+00
 -0.36603464D-14  0.28621786D-01  0.11344118D-01  0.11344118D-01 -0.15052699D-01
  0.00000000D+00  0.00000000D+00 -0.50998875D-15  0.17685212D-01  0.29997467D-01
  0.34151056D-01  0.15018047D-01  0.00000000D+00 -0.65731748D-02  0.98450680D-02
  0.17685212D-01  0.29997467D-01  0.34151056D-01  0.15018047D-01 -0.56925364D-02
  0.32865874D-02  0.98450680D-02  0.17685212D-01  0.29997467D-01  0.34151056D-01
  0.15018047D-01  0.56925364D-02  0.32865874D-02  0.98450680D-02  0.97245122D-02
  0.17939826D-01  0.28960442D-01  0.37697891D-01  0.32167678D-01  0.11106726D-01
  0.16886116D-01  0.77827955D-02 -0.21823771D-01  0.00000000D+00  0.00000000D+00
  0.00000000D+00 -0.23830149D-14 -0.18271447D-14 -0.91187326D-15 -0.53316338D+00
 -0.40879586D+00 -0.20401779D+00 -0.10881679D-01  0.00000000D+00  0.36603464D-14
 -0.28621786D-01  0.11344118D-01  0.11344118D-01 -0.15052699D-01  0.00000000D+00
  0.00000000D+00 -0.50998875D-15  0.17685212D-01  0.29997467D-01  0.34151056D-01
  0.15018047D-01  0.00000000D+00  0.65731748D-02 -0.98450680D-02  0.17685212D-01
  0.29997467D-01  0.34151056D-01  0.15018047D-01  0.56925364D-02 -0.32865874D-02
 -0.98450680D-02  0.17685212D-01  0.29997467D-01  0.34151056D-01  0.15018047D-01
 -0.56925364D-02 -0.32865874D-02 -0.98450680D-02
MO    8     MO 0.0        OCC NO =    2.0000000  ORB. ENERGY =   -0.339151
  0.00000000D+00  0.00000000D+00  0.00000000D+00  0.00000000D+00  0.00000000D+00
  0.00000000D+00  0.00000000D+00  0.00000000D+00  0.00000000D+00  0.40531481D+00
  0.31076969D+00  0.15509586D+00  0.00000000D+00  0.00000000D+00  0.00000000D+00
  0.00000000D+00  0.00000000D+00  0.00000000D+00  0.00000000D+00  0.21639776D-01
  0.00000000D+00  0.00000000D+00  0.00000000D+00  0.00000000D+00  0.00000000D+00
 -0.29880325D-01  0.38019351D-01  0.00000000D+00  0.00000000D+00  0.00000000D+00
  0.00000000D+00  0.00000000D+00  0.10215224D-01  0.00000000D+00  0.00000000D+00
  0.40337291D-01  0.68419680D-01  0.77893388D-01  0.34652866D-01 -0.19288436D-02
  0.70113806D-02 -0.37727188D-02 -0.40337291D-01 -0.68419680D-01 -0.77893388D-01
 -0.34652866D-01 -0.19288436D-02 -0.70113806D-02  0.37727188D-02  0.00000000D+00
  0.00000000D+00  0.00000000D+00  0.00000000D+00  0.00000000D+00  0.00000000D+00
  0.00000000D+00  0.00000000D+00  0.00000000D+00 -0.40531481D+00 -0.31076969D+00
 -0.15509586D+00  0.00000000D+00  0.00000000D+00  0.00000000D+00  0.00000000D+00
  0.00000000D+00  0.00000000D+00  0.00000000D+00 -0.21639776D-01  0.00000000D+00
  0.00000000D+00  0.00000000D+00  0.00000000D+00  0.00000000D+00 -0.29880325D-01
  0.38019351D-01  0.00000000D+00  0.00000000D+00  0.00000000D+00  0.00000000D+00
  0.00000000D+00 -0.10215224D-01  0.00000000D+00  0.00000000D+00  0.40337291D-01
  0.68419680D-01  0.77893388D-01  0.34652866D-01  0.19288436D-02 -0.70113806D-02
  0.37727188D-02 -0.40337291D-01 -0.68419680D-01 -0.77893388D-01 -0.34652866D-01
  0.19288436D-02  0.70113806D-02 -0.37727188D-02
MO    9     MO 0.0        OCC NO =    2.0000000  ORB. ENERGY =   -0.339151
 -0.76942104D-15 -0.14194316D-14 -0.22914027D-14 -0.29827255D-14 -0.25451650D-14
 -0.87878432D-15  0.57198308D-14  0.26362648D-14 -0.73923617D-14  0.00000000D+00
  0.00000000D+00  0.00000000D+00  0.40531481D+00  0.31076969D+00  0.15509586D+00
  0.14472354D-14  0.11096483D-14  0.55379229D-15  0.84013255D-14  0.00000000D+00
  0.21639776D-01  0.90784584D-15 -0.14940162D-01  0.14940162D-01 -0.22263148D-14
  0.00000000D+00  0.00000000D+00  0.38019351D-01  0.46577492D-01  0.79004242D-01
  0.89943537D-01  0.40013683D-01  0.00000000D+00 -0.59768661D-02 -0.43563604D-02
 -0.23288746D-01 -0.39502121D-01 -0.44971768D-01 -0.20006841D-01  0.70113806D-02
  0.61672013D-02  0.21781802D-02 -0.23288746D-01 -0.39502121D-01 -0.44971768D-01
 -0.20006841D-01 -0.70113806D-02  0.61672013D-02  0.21781802D-02 -0.76942104D-15
 -0.14194316D-14 -0.22914027D-14 -0.29827255D-14 -0.25451650D-14 -0.87878432D-15
  0.57198308D-14  0.26362648D-14 -0.73923617D-14  0.00000000D+00  0.00000000D+00
  0.00000000D+00 -0.40531481D+00 -0.31076969D+00 -0.15509586D+00 -0.14472354D-14
 -0.11096483D-14 -0.55379229D-15  0.84013255D-14  0.00000000D+00 -0.21639776D-01
 -0.90784584D-15 -0.14940162D-01  0.14940162D-01 -0.22263148D-14  0.00000000D+00
  0.00000000D+00  0.38019351D-01  0.46577492D-01  0.79004242D-01  0.89943537D-01
  0.40013683D-01  0.00000000D+00  0.59768661D-02  0.43563604D-02 -0.23288746D-01
 -0.39502121D-01 -0.44971768D-01 -0.20006841D-01 -0.70113806D-02 -0.61672013D-02
 -0.21781802D-02 -0.23288746D-01 -0.39502121D-01 -0.44971768D-01 -0.20006841D-01
  0.70113806D-02 -0.61672013D-02 -0.21781802D-02
END DATA
 THE  HF ENERGY =    -79.838738217863 THE VIRIAL(-V/T)=   2.01080701
