 b3lyp/6-31G** opted                                     
GAUSSIAN              8 MOL ORBITALS     84 PRIMITIVES        6 NUCLEI
  C    1    (CENTRE  1)   0.00000000  0.00000000  1.25715837  CHARGE =  6.0
  H    2    (CENTRE  2)   0.00000000  1.74529775  2.33927214  CHARGE =  1.0
  H    3    (CENTRE  3)   0.00000000 -1.74529775  2.33927214  CHARGE =  1.0
  C    4    (CENTRE  4)   0.00000000  0.00000000 -1.25715837  CHARGE =  6.0
  H    5    (CENTRE  5)   0.00000000 -1.74529775 -2.33927214  CHARGE =  1.0
  H    6    (CENTRE  6)   0.00000000  1.74529775 -2.33927214  CHARGE =  1.0
CENTRE ASSIGNMENTS    1  1  1  1  1  1  1  1  1  1  1  1  1  1  1  1  1  1  1  1
CENTRE ASSIGNMENTS    1  1  1  1  1  1  1  1  2  2  2  2  2  2  2  3  3  3  3  3
CENTRE ASSIGNMENTS    3  3  4  4  4  4  4  4  4  4  4  4  4  4  4  4  4  4  4  4
CENTRE ASSIGNMENTS    4  4  4  4  4  4  4  4  4  4  5  5  5  5  5  5  5  6  6  6
CENTRE ASSIGNMENTS    6  6  6  6
TYPE ASSIGNMENTS      1  1  1  1  1  1  1  1  1  2  2  2  3  3  3  4  4  4  1  2
TYPE ASSIGNMENTS      3  4  5  6  7  8  9 10  1  1  1  1  2  3  4  1  1  1  1  2
TYPE ASSIGNMENTS      3  4  1  1  1  1  1  1  1  1  1  2  2  2  3  3  3  4  4  4
TYPE ASSIGNMENTS      1  2  3  4  5  6  7  8  9 10  1  1  1  1  2  3  4  1  1  1
TYPE ASSIGNMENTS      1  2  3  4
EXPONENTS  0.3047525D+04 0.4573695D+03 0.1039487D+03 0.2921016D+02 0.9286663D+01
EXPONENTS  0.3163927D+01 0.7868272D+01 0.1881289D+01 0.5442493D+00 0.7868272D+01
EXPONENTS  0.1881289D+01 0.5442493D+00 0.7868272D+01 0.1881289D+01 0.5442493D+00
EXPONENTS  0.7868272D+01 0.1881289D+01 0.5442493D+00 0.1687145D+00 0.1687145D+00
EXPONENTS  0.1687145D+00 0.1687145D+00 0.8000000D+00 0.8000000D+00 0.8000000D+00
EXPONENTS  0.8000000D+00 0.8000000D+00 0.8000000D+00 0.1873114D+02 0.2825394D+01
EXPONENTS  0.6401217D+00 0.1612778D+00 0.1100000D+01 0.1100000D+01 0.1100000D+01
EXPONENTS  0.1873114D+02 0.2825394D+01 0.6401217D+00 0.1612778D+00 0.1100000D+01
EXPONENTS  0.1100000D+01 0.1100000D+01 0.3047525D+04 0.4573695D+03 0.1039487D+03
EXPONENTS  0.2921016D+02 0.9286663D+01 0.3163927D+01 0.7868272D+01 0.1881289D+01
EXPONENTS  0.5442493D+00 0.7868272D+01 0.1881289D+01 0.5442493D+00 0.7868272D+01
EXPONENTS  0.1881289D+01 0.5442493D+00 0.7868272D+01 0.1881289D+01 0.5442493D+00
EXPONENTS  0.1687145D+00 0.1687145D+00 0.1687145D+00 0.1687145D+00 0.8000000D+00
EXPONENTS  0.8000000D+00 0.8000000D+00 0.8000000D+00 0.8000000D+00 0.8000000D+00
EXPONENTS  0.1873114D+02 0.2825394D+01 0.6401217D+00 0.1612778D+00 0.1100000D+01
EXPONENTS  0.1100000D+01 0.1100000D+01 0.1873114D+02 0.2825394D+01 0.6401217D+00
EXPONENTS  0.1612778D+00 0.1100000D+01 0.1100000D+01 0.1100000D+01
MO    1     MO 0.0        OCC NO =    2.0000000  ORB. ENERGY =  -10.184448
  0.37640247D+00  0.69438906D+00  0.11209593D+01  0.14591559D+01  0.12451004D+01
  0.42990323D+00 -0.13716052D-01 -0.63217158D-02  0.17726751D-01  0.00000000D+00
  0.00000000D+00  0.00000000D+00  0.00000000D+00  0.00000000D+00  0.00000000D+00
  0.43068577D-03  0.33022253D-03  0.16480419D-03 -0.11135041D-02  0.00000000D+00
  0.00000000D+00 -0.98413578D-04 -0.77816405D-02 -0.75232305D-02 -0.73826060D-02
  0.00000000D+00  0.00000000D+00  0.00000000D+00 -0.70207637D-04 -0.11908544D-03
 -0.13557456D-03  0.27273893D-03  0.00000000D+00  0.16669848D-03 -0.12790388D-04
 -0.70207637D-04 -0.11908544D-03 -0.13557456D-03  0.27273893D-03  0.00000000D+00
 -0.16669848D-03 -0.12790388D-04  0.37640247D+00  0.69438906D+00  0.11209593D+01
  0.14591559D+01  0.12451004D+01  0.42990323D+00 -0.13716052D-01 -0.63217158D-02
  0.17726751D-01  0.00000000D+00  0.00000000D+00  0.00000000D+00  0.00000000D+00
  0.00000000D+00  0.00000000D+00 -0.43068577D-03 -0.33022253D-03 -0.16480419D-03
 -0.11135041D-02  0.00000000D+00  0.00000000D+00  0.98413578D-04 -0.77816405D-02
 -0.75232305D-02 -0.73826060D-02  0.00000000D+00  0.00000000D+00  0.00000000D+00
 -0.70207637D-04 -0.11908544D-03 -0.13557456D-03  0.27273893D-03  0.00000000D+00
 -0.16669848D-03  0.12790388D-04 -0.70207637D-04 -0.11908544D-03 -0.13557456D-03
  0.27273893D-03  0.00000000D+00  0.16669848D-03  0.12790388D-04
MO    2     MO 0.0        OCC NO =    2.0000000  ORB. ENERGY =  -10.183553
  0.37659690D+00  0.69474775D+00  0.11215383D+01  0.14599096D+01  0.12457435D+01
  0.43012530D+00 -0.14009645D-01 -0.64570326D-02  0.18106193D-01  0.00000000D+00
  0.00000000D+00  0.00000000D+00  0.00000000D+00  0.00000000D+00  0.00000000D+00
 -0.31249694D-03 -0.23960283D-03 -0.11957861D-03 -0.23399842D-02  0.00000000D+00
  0.00000000D+00  0.34752699D-03 -0.75715683D-02 -0.69985324D-02 -0.67891520D-02
  0.00000000D+00  0.00000000D+00  0.00000000D+00 -0.60117733D-04 -0.10197105D-03
 -0.11609044D-03  0.25243204D-03  0.00000000D+00  0.37272331D-03  0.14448230D-03
 -0.60117733D-04 -0.10197105D-03 -0.11609044D-03  0.25243204D-03  0.00000000D+00
 -0.37272331D-03  0.14448230D-03 -0.37659690D+00 -0.69474775D+00 -0.11215383D+01
 -0.14599096D+01 -0.12457435D+01 -0.43012530D+00  0.14009645D-01  0.64570326D-02
 -0.18106193D-01  0.00000000D+00  0.00000000D+00  0.00000000D+00  0.00000000D+00
  0.00000000D+00  0.00000000D+00 -0.31249694D-03 -0.23960283D-03 -0.11957861D-03
  0.23399842D-02  0.00000000D+00  0.00000000D+00  0.34752699D-03  0.75715683D-02
  0.69985324D-02  0.67891520D-02  0.00000000D+00  0.00000000D+00  0.00000000D+00
  0.60117733D-04  0.10197105D-03  0.11609044D-03 -0.25243204D-03  0.00000000D+00
  0.37272331D-03  0.14448230D-03  0.60117733D-04  0.10197105D-03  0.11609044D-03
 -0.25243204D-03  0.00000000D+00 -0.37272331D-03  0.14448230D-03
MO    3     MO 0.0        OCC NO =    2.0000000  ORB. ENERGY =   -0.755100
 -0.86286038D-01 -0.15918089D+00 -0.25696731D+00 -0.33449509D+00 -0.28542527D+00
 -0.98550486D-01 -0.12460361D+00 -0.57429691D-01  0.16103885D+00  0.00000000D+00
  0.00000000D+00  0.00000000D+00  0.00000000D+00  0.00000000D+00  0.00000000D+00
 -0.13639970D+00 -0.10458264D+00 -0.52194065D-01  0.42451717D-01  0.00000000D+00
  0.00000000D+00 -0.11698821D-02 -0.18616170D-01 -0.10702915D-01  0.57693610D-02
  0.00000000D+00  0.00000000D+00  0.00000000D+00  0.18643247D-01  0.31622476D-01
  0.36001072D-01  0.41144658D-02  0.00000000D+00 -0.12159556D-01 -0.99605691D-02
  0.18643247D-01  0.31622476D-01  0.36001072D-01  0.41144658D-02  0.00000000D+00
  0.12159556D-01 -0.99605691D-02 -0.86286038D-01 -0.15918089D+00 -0.25696731D+00
 -0.33449509D+00 -0.28542527D+00 -0.98550486D-01 -0.12460361D+00 -0.57429691D-01
  0.16103885D+00  0.00000000D+00  0.00000000D+00  0.00000000D+00  0.00000000D+00
  0.00000000D+00  0.00000000D+00  0.13639970D+00  0.10458264D+00  0.52194065D-01
  0.42451717D-01  0.00000000D+00  0.00000000D+00  0.11698821D-02 -0.18616170D-01
 -0.10702915D-01  0.57693610D-02  0.00000000D+00  0.00000000D+00  0.00000000D+00
  0.18643247D-01  0.31622476D-01  0.36001072D-01  0.41144658D-02  0.00000000D+00
  0.12159556D-01  0.99605691D-02  0.18643247D-01  0.31622476D-01  0.36001072D-01
  0.41144658D-02  0.00000000D+00 -0.12159556D-01  0.99605691D-02
MO    4     MO 0.0        OCC NO =    2.0000000  ORB. ENERGY =   -0.576517
 -0.66275365D-01 -0.12226511D+00 -0.19737379D+00 -0.25692203D+00 -0.21923204D+00
 -0.75695554D-01 -0.10005918D+00 -0.46117184D-01  0.12931740D+00  0.00000000D+00
  0.00000000D+00  0.00000000D+00  0.00000000D+00  0.00000000D+00  0.00000000D+00
  0.21856409D+00  0.16758108D+00  0.83634705D-01  0.42839100D-01  0.00000000D+00
  0.00000000D+00  0.91940369D-02 -0.12230340D-01  0.45291928D-02 -0.15160853D-01
  0.00000000D+00  0.00000000D+00  0.00000000D+00  0.31859090D-01  0.54039046D-01
  0.61521544D-01  0.13530011D-01  0.00000000D+00 -0.15905407D-01 -0.60893970D-02
  0.31859090D-01  0.54039046D-01  0.61521544D-01  0.13530011D-01  0.00000000D+00
  0.15905407D-01 -0.60893970D-02  0.66275365D-01  0.12226511D+00  0.19737379D+00
  0.25692203D+00  0.21923204D+00  0.75695554D-01  0.10005918D+00  0.46117184D-01
 -0.12931740D+00  0.00000000D+00  0.00000000D+00  0.00000000D+00  0.00000000D+00
  0.00000000D+00  0.00000000D+00  0.21856409D+00  0.16758108D+00  0.83634705D-01
 -0.42839100D-01  0.00000000D+00  0.00000000D+00  0.91940369D-02  0.12230340D-01
 -0.45291928D-02  0.15160853D-01  0.00000000D+00  0.00000000D+00  0.00000000D+00
 -0.31859090D-01 -0.54039046D-01 -0.61521544D-01 -0.13530011D-01  0.00000000D+00
 -0.15905407D-01 -0.60893970D-02 -0.31859090D-01 -0.54039046D-01 -0.61521544D-01
 -0.13530011D-01  0.00000000D+00  0.15905407D-01 -0.60893970D-02
MO    5     MO 0.0        OCC NO =    2.0000000  ORB. ENERGY =   -0.464003
  0.00000000D+00  0.00000000D+00  0.00000000D+00  0.00000000D+00  0.00000000D+00
  0.00000000D+00  0.00000000D+00  0.00000000D+00  0.00000000D+00  0.00000000D+00
  0.00000000D+00  0.00000000D+00  0.42438942D+00  0.32539489D+00  0.16239485D+00
  0.00000000D+00  0.00000000D+00  0.00000000D+00  0.00000000D+00  0.00000000D+00
  0.17743423D-01  0.00000000D+00  0.00000000D+00  0.00000000D+00  0.00000000D+00
  0.00000000D+00  0.00000000D+00  0.47290434D-02  0.33567932D-01  0.56937566D-01
  0.64821406D-01  0.21471794D-01  0.00000000D+00 -0.50853132D-02 -0.98702331D-02
 -0.33567932D-01 -0.56937566D-01 -0.64821406D-01 -0.21471794D-01  0.00000000D+00
 -0.50853132D-02  0.98702331D-02  0.00000000D+00  0.00000000D+00  0.00000000D+00
  0.00000000D+00  0.00000000D+00  0.00000000D+00  0.00000000D+00  0.00000000D+00
  0.00000000D+00  0.00000000D+00  0.00000000D+00  0.00000000D+00  0.42438942D+00
  0.32539489D+00  0.16239485D+00  0.00000000D+00  0.00000000D+00  0.00000000D+00
  0.00000000D+00  0.00000000D+00  0.17743423D-01  0.00000000D+00  0.00000000D+00
  0.00000000D+00  0.00000000D+00  0.00000000D+00  0.00000000D+00 -0.47290434D-02
 -0.33567932D-01 -0.56937566D-01 -0.64821406D-01 -0.21471794D-01  0.00000000D+00
 -0.50853132D-02 -0.98702331D-02  0.33567932D-01  0.56937566D-01  0.64821406D-01
  0.21471794D-01  0.00000000D+00 -0.50853132D-02  0.98702331D-02
MO    6     MO 0.0        OCC NO =    2.0000000  ORB. ENERGY =   -0.415666
  0.76483184D-02  0.14109654D-01  0.22777356D-01  0.29649350D-01  0.25299844D-01
  0.87354283D-02  0.12516474D-01  0.57688316D-02 -0.16176406D-01  0.00000000D+00
  0.00000000D+00  0.00000000D+00  0.00000000D+00  0.00000000D+00  0.00000000D+00
  0.53546174D+00  0.41055810D+00  0.20489726D+00 -0.17202426D-02  0.00000000D+00
  0.00000000D+00  0.20998930D-01  0.68492878D-03  0.20506359D-01 -0.80620558D-02
  0.00000000D+00  0.00000000D+00  0.00000000D+00  0.26907095D-01  0.45639526D-01
  0.51958987D-01  0.20338268D-01  0.00000000D+00 -0.84824252D-02  0.70995350D-02
  0.26907095D-01  0.45639526D-01  0.51958987D-01  0.20338268D-01  0.00000000D+00
  0.84824252D-02  0.70995350D-02  0.76483184D-02  0.14109654D-01  0.22777356D-01
  0.29649350D-01  0.25299844D-01  0.87354283D-02  0.12516474D-01  0.57688316D-02
 -0.16176406D-01  0.00000000D+00  0.00000000D+00  0.00000000D+00  0.00000000D+00
  0.00000000D+00  0.00000000D+00 -0.53546174D+00 -0.41055810D+00 -0.20489726D+00
 -0.17202426D-02  0.00000000D+00  0.00000000D+00 -0.20998930D-01  0.68492878D-03
  0.20506359D-01 -0.80620558D-02  0.00000000D+00  0.00000000D+00  0.00000000D+00
  0.26907095D-01  0.45639526D-01  0.51958987D-01  0.20338268D-01  0.00000000D+00
  0.84824252D-02 -0.70995350D-02  0.26907095D-01  0.45639526D-01  0.51958987D-01
  0.20338268D-01  0.00000000D+00 -0.84824252D-02 -0.70995350D-02
MO    7     MO 0.0        OCC NO =    2.0000000  ORB. ENERGY =   -0.351902
  0.00000000D+00  0.00000000D+00  0.00000000D+00  0.00000000D+00  0.00000000D+00
  0.00000000D+00  0.00000000D+00  0.00000000D+00  0.00000000D+00  0.00000000D+00
  0.00000000D+00  0.00000000D+00  0.39822694D+00  0.30533516D+00  0.15238364D+00
  0.00000000D+00  0.00000000D+00  0.00000000D+00  0.00000000D+00  0.00000000D+00
  0.16117650D-01  0.00000000D+00  0.00000000D+00  0.00000000D+00  0.00000000D+00
  0.00000000D+00  0.00000000D+00  0.52703959D-01  0.42641388D-01  0.72327865D-01
  0.82342718D-01  0.37289353D-01  0.00000000D+00 -0.45881543D-02 -0.69684846D-02
 -0.42641388D-01 -0.72327865D-01 -0.82342718D-01 -0.37289353D-01  0.00000000D+00
 -0.45881543D-02  0.69684846D-02  0.00000000D+00  0.00000000D+00  0.00000000D+00
  0.00000000D+00  0.00000000D+00  0.00000000D+00  0.00000000D+00  0.00000000D+00
  0.00000000D+00  0.00000000D+00  0.00000000D+00  0.00000000D+00 -0.39822694D+00
 -0.30533516D+00 -0.15238364D+00  0.00000000D+00  0.00000000D+00  0.00000000D+00
  0.00000000D+00  0.00000000D+00 -0.16117650D-01  0.00000000D+00  0.00000000D+00
  0.00000000D+00  0.00000000D+00  0.00000000D+00  0.00000000D+00  0.52703959D-01
  0.42641388D-01  0.72327865D-01  0.82342718D-01  0.37289353D-01  0.00000000D+00
  0.45881543D-02  0.69684846D-02 -0.42641388D-01 -0.72327865D-01 -0.82342718D-01
 -0.37289353D-01  0.00000000D+00  0.45881543D-02 -0.69684846D-02
MO    8     MO 0.0        OCC NO =    2.0000000  ORB. ENERGY =   -0.267387
  0.00000000D+00  0.00000000D+00  0.00000000D+00  0.00000000D+00  0.00000000D+00
  0.00000000D+00  0.00000000D+00  0.00000000D+00  0.00000000D+00  0.51915148D+00
  0.39805243D+00  0.19865606D+00  0.00000000D+00  0.00000000D+00  0.00000000D+00
  0.00000000D+00  0.00000000D+00  0.00000000D+00  0.00000000D+00  0.43420459D-01
  0.00000000D+00  0.00000000D+00  0.00000000D+00  0.00000000D+00  0.00000000D+00
  0.00000000D+00 -0.33555075D-01  0.00000000D+00  0.00000000D+00  0.00000000D+00
  0.00000000D+00  0.00000000D+00  0.15638006D-01  0.00000000D+00  0.00000000D+00
  0.00000000D+00  0.00000000D+00  0.00000000D+00  0.00000000D+00  0.15638006D-01
  0.00000000D+00  0.00000000D+00  0.00000000D+00  0.00000000D+00  0.00000000D+00
  0.00000000D+00  0.00000000D+00  0.00000000D+00  0.00000000D+00  0.00000000D+00
  0.00000000D+00  0.51915148D+00  0.39805243D+00  0.19865606D+00  0.00000000D+00
  0.00000000D+00  0.00000000D+00  0.00000000D+00  0.00000000D+00  0.00000000D+00
  0.00000000D+00  0.43420459D-01  0.00000000D+00  0.00000000D+00  0.00000000D+00
  0.00000000D+00  0.00000000D+00  0.00000000D+00  0.33555075D-01  0.00000000D+00
  0.00000000D+00  0.00000000D+00  0.00000000D+00  0.00000000D+00  0.15638006D-01
  0.00000000D+00  0.00000000D+00  0.00000000D+00  0.00000000D+00  0.00000000D+00
  0.00000000D+00  0.15638006D-01  0.00000000D+00  0.00000000D+00
END DATA
 THE  HF ENERGY =    -78.593807402423 THE VIRIAL(-V/T)=   2.01046823
