 Title Card Required                                     
GAUSSIAN             24 MOL ORBITALS     54 PRIMITIVES        6 NUCLEI
  C    1    (CENTRE  1)   0.19425385  0.90256211 -0.35636840  CHARGE =  6.0
  H    2    (CENTRE  2)   0.42401956  2.79354958  0.34620945  CHARGE =  1.0
  N    3    (CENTRE  3)  -2.14273428 -0.25024304  0.00585619  CHARGE =  7.0
  H    4    (CENTRE  4)  -3.01477896 -0.13066882  1.67777698  CHARGE =  1.0
  H    5    (CENTRE  5)  -2.58891623 -1.74244149 -1.05536076  CHARGE =  1.0
  O    6    (CENTRE  6)   2.37666157 -0.57301383  0.14107393  CHARGE =  8.0
CENTRE ASSIGNMENTS    1  1  1  1  1  1  1  1  1  1  1  1  1  1  1  2  2  2  3  3
CENTRE ASSIGNMENTS    3  3  3  3  3  3  3  3  3  3  3  3  3  4  4  4  5  5  5  6
CENTRE ASSIGNMENTS    6  6  6  6  6  6  6  6  6  6  6  6  6  6
TYPE ASSIGNMENTS      1  1  1  1  1  2  2  3  3  4  4  1  2  3  4  1  1  1  1  1
TYPE ASSIGNMENTS      1  1  1  2  2  3  3  4  4  1  2  3  4  1  1  1  1  1  1  1
TYPE ASSIGNMENTS      1  1  1  1  2  2  3  3  4  4  1  2  3  4
EXPONENTS  0.1722560D+03 0.2591090D+02 0.5533350D+01 0.3664980D+01 0.7705450D+00
EXPONENTS  0.3664980D+01 0.7705450D+00 0.3664980D+01 0.7705450D+00 0.3664980D+01
EXPONENTS  0.7705450D+00 0.1958570D+00 0.1958570D+00 0.1958570D+00 0.1958570D+00
EXPONENTS  0.5447178D+01 0.8245472D+00 0.1831916D+00 0.2427660D+03 0.3648510D+02
EXPONENTS  0.7814490D+01 0.5425220D+01 0.1149150D+01 0.5425220D+01 0.1149150D+01
EXPONENTS  0.5425220D+01 0.1149150D+01 0.5425220D+01 0.1149150D+01 0.2832050D+00
EXPONENTS  0.2832050D+00 0.2832050D+00 0.2832050D+00 0.5447178D+01 0.8245472D+00
EXPONENTS  0.1831916D+00 0.5447178D+01 0.8245472D+00 0.1831916D+00 0.3220370D+03
EXPONENTS  0.4843080D+02 0.1042060D+02 0.7402940D+01 0.1576200D+01 0.7402940D+01
EXPONENTS  0.1576200D+01 0.7402940D+01 0.1576200D+01 0.7402940D+01 0.1576200D+01
EXPONENTS  0.3736840D+00 0.3736840D+00 0.3736840D+00 0.3736840D+00
MO    1     MO 0.0        OCC NO =    1.0000000  ORB. ENERGY =  -20.518420
 -0.13122093D-02 -0.18410839D-02 -0.11295301D-02  0.16239016D-02 -0.15484555D-02
  0.21954113D-02  0.11375674D-02 -0.12560163D-02 -0.65081346D-03  0.52927094D-03
  0.27424536D-03  0.34639776D-02  0.15047594D-02 -0.15919864D-02  0.55170290D-03
 -0.43011493D-03 -0.60422748D-03  0.10865261D-03  0.37926831D-03  0.53973874D-03
  0.34015216D-03 -0.72975425D-03  0.67500986D-03  0.38258186D-03  0.19843447D-03
 -0.86509384D-03 -0.44869989D-03  0.15812638D-03  0.82015718D-04 -0.84608307D-03
 -0.98314725D-03  0.53408473D-03 -0.85861542D-04  0.83451859D-04  0.11723356D-03
 -0.13159631D-03  0.25309553D-03  0.35554979D-03 -0.54892043D-04  0.31550514D+01
  0.45209845D+01  0.28754739D+01 -0.12579728D+00  0.11908946D+00 -0.12983636D-01
 -0.65562967D-02  0.86121983D-02  0.43488686D-02 -0.29035409D-02 -0.14661899D-02
 -0.13769084D-01  0.37264437D-02 -0.23556908D-02  0.76332040D-03
MO    2     MO 0.0        OCC NO =    1.0000000  ORB. ENERGY =  -15.480221
 -0.67207389D-03 -0.94294746D-03 -0.57851115D-03  0.12246138D-02 -0.11677185D-02
 -0.14774153D-02 -0.76553285D-03 -0.67258758D-03 -0.34850586D-03  0.34930641D-03
  0.18099551D-03  0.38234722D-02 -0.19012194D-02 -0.13452673D-02  0.44609309D-03
 -0.32940680D-03 -0.46275222D-03  0.13605772D-03  0.25865987D+01  0.36810022D+01
  0.23198277D+01 -0.10500633D+00  0.97129007D-01  0.49724346D-02  0.25790623D-02
 -0.12006196D-02 -0.62272771D-03  0.13438122D-02  0.69699768D-03 -0.16131381D-01
 -0.24173966D-02 -0.39176259D-03 -0.32747201D-04  0.45331848D-03  0.63682394D-03
  0.14404372D-02  0.48653827D-03  0.68349125D-03  0.14664692D-02  0.24208133D-03
  0.34688688D-03  0.22062985D-03 -0.62241302D-03  0.58922442D-03 -0.32788350D-03
 -0.16557007D-03 -0.96457698D-03 -0.48707871D-03  0.29555029D-03  0.14924289D-03
 -0.75387082D-03  0.88741776D-03  0.34590508D-03 -0.11200028D-03
MO    3     MO 0.0        OCC NO =    1.0000000  ORB. ENERGY =  -11.258932
  0.20643430D+01  0.28963586D+01  0.17769556D+01 -0.69861966D-01  0.66616194D-01
  0.47600109D-03  0.24664322D-03  0.22994298D-03  0.11914653D-03  0.30918047D-02
  0.16020398D-02 -0.96769081D-02  0.37773702D-03 -0.98671731D-03 -0.11287206D-02
 -0.76923334D-03 -0.10806226D-02  0.32523349D-02  0.12683988D-03  0.18050650D-03
  0.11375814D-03  0.87463868D-04 -0.80902541D-04 -0.18424612D-02 -0.95563292D-03
 -0.15775123D-02 -0.81821136D-03 -0.55186774D-03 -0.28623831D-03  0.14893868D-02
  0.59945276D-03  0.82202826D-03  0.51184161D-03 -0.55235569D-03 -0.77595188D-03
  0.38047949D-03 -0.40884523D-04 -0.57434770D-04  0.50410701D-03 -0.69341003D-04
 -0.99361171D-04 -0.63196511D-04 -0.57245648D-03  0.54193168D-03 -0.28591418D-02
 -0.14437698D-02  0.20762780D-02  0.10484501D-02 -0.18510072D-02 -0.93469596D-03
  0.12412913D-02  0.39399190D-03 -0.24451867D-03  0.65775107D-03
MO    4     MO 0.0        OCC NO =    1.0000000  ORB. ENERGY =   -1.398779
 -0.17888904D+00 -0.25098873D+00 -0.15398501D+00 -0.74905994D-01  0.71425878D-01
  0.92170821D-01  0.47758942D-01 -0.87902622D-01 -0.45547345D-01  0.29994764D-01
  0.15541992D-01  0.21896665D-01 -0.14171497D-02  0.44810225D-02  0.13730176D-03
  0.10335070D-01  0.14518755D-01 -0.25919845D-02 -0.93757549D-01 -0.13342686D+00
 -0.84087787D-01 -0.32040284D-01  0.29636699D-01  0.68637298D-01  0.35600240D-01
  0.89626512D-02  0.46486757D-02  0.11618162D-02  0.60260145D-03  0.27037177D-01
  0.79342076D-02 -0.23636072D-02  0.29016867D-03  0.48010346D-02  0.67445160D-02
  0.19235295D-04  0.41821210D-02  0.58750633D-02 -0.81911190D-06 -0.73212538D+00
 -0.10490883D+01 -0.66724979D+00 -0.29525737D+00  0.27951351D+00 -0.26321822D+00
 -0.13291629D+00  0.17179411D+00  0.86750207D-01 -0.72793016D-01 -0.36758008D-01
  0.24383994D+00 -0.35591864D-01  0.22452987D-01 -0.79383935D-02
MO    5     MO 0.0        OCC NO =    1.0000000  ORB. ENERGY =   -1.192943
 -0.16469962D+00 -0.23108037D+00 -0.14177096D+00 -0.68604907D-01  0.65417538D-01
 -0.20122511D+00 -0.10426617D+00 -0.52315411D-01 -0.27107589D-01  0.20718965D-01
  0.10735674D-01  0.27519452D-01  0.34085698D-03  0.27407036D-02  0.99605681D-03
  0.11556693D-01  0.16234897D-01 -0.25217647D-02 -0.54076254D+00 -0.76956203D+00
 -0.48499055D+00 -0.19678592D+00  0.18202352D+00  0.10910993D+00  0.56592261D-01
 -0.65721869D-02 -0.34088089D-02  0.21429804D-01  0.11115038D-01  0.17176529D+00
  0.14418972D-01 -0.27884477D-03  0.22974765D-02  0.41753794D-01  0.58655927D-01
  0.32958599D-02  0.41135537D-01  0.57787396D-01  0.28477303D-02  0.22282490D+00
  0.31929367D+00  0.20307979D+00  0.89666295D-01 -0.84885066D-01 -0.67853808D-01
 -0.34263875D-01 -0.23171305D-01 -0.11700725D-01  0.12531192D-01  0.63278275D-02
 -0.82673100D-01 -0.17262009D-02 -0.66742051D-02  0.15439689D-02
MO    6     MO 0.0        OCC NO =    1.0000000  ORB. ENERGY =   -0.874290
 -0.36010473D+00 -0.50524182D+00 -0.30997276D+00 -0.14384377D+00  0.13716082D+00
 -0.15642153D-01 -0.81050889D-02  0.15231945D+00  0.78925368D-01  0.21045715D-01
  0.10904982D-01  0.10736308D+00 -0.44321101D-03  0.13481347D-01  0.42056272D-02
  0.65505654D-01  0.92022651D-01  0.71128164D-02  0.17389115D+00  0.24746541D+00
  0.15595674D+00  0.59081320D-01 -0.54649183D-01  0.39735676D+00  0.20609780D+00
  0.34374479D+00  0.17829077D+00 -0.79731216D-01 -0.41354344D-01 -0.71710766D-01
  0.27240650D-01  0.25455187D-01 -0.80808515D-02 -0.35946251D-01 -0.50497463D-01
 -0.10010721D-01 -0.42234036D-01 -0.59330573D-01 -0.11120519D-01  0.23643545D+00
  0.33879671D+00  0.21548427D+00  0.90346857D-01 -0.85529338D-01 -0.37881995D+00
 -0.19129125D+00  0.43477841D+00  0.21954837D+00 -0.70884924D-01 -0.35794487D-01
 -0.10694665D+00 -0.27524802D-01  0.34055135D-01 -0.68901891D-02
MO    7     MO 0.0        OCC NO =    1.0000000  ORB. ENERGY =   -0.724930
  0.40069753D-01  0.56219520D-01  0.34491443D-01  0.20457805D-01 -0.19507340D-01
  0.11406740D+00  0.59104804D-01  0.31605917D+00  0.16376822D+00  0.22094479D+00
  0.11448406D+00 -0.66582939D-02  0.80053420D-02  0.23979487D-01  0.19491801D-01
  0.41789149D-01  0.58705594D-01  0.12703552D-01 -0.24679767D-01 -0.35121907D-01
 -0.22134399D-01 -0.85934495D-02  0.79487898D-02 -0.43443085D+00 -0.22532709D+00
  0.21614579D+00  0.11210875D+00  0.66506029D+00  0.34494811D+00  0.11381424D-01
 -0.40357261D-01  0.21818956D-01  0.60645470D-01  0.76999613D-01  0.10816942D+00
  0.24935883D-01 -0.36344728D-01 -0.51057245D-01 -0.10668620D-01 -0.42412295D-01
 -0.60774075D-01 -0.38654028D-01 -0.16978402D-01  0.16073071D-01  0.63086337D+00
  0.31856464D+00  0.66758695D+00  0.33710880D+00  0.40230829D+00  0.20315206D+00
  0.18719934D-01  0.60916422D-01  0.63382152D-01  0.36685328D-01
MO    8     MO 0.0        OCC NO =    1.0000000  ORB. ENERGY =   -0.683697
 -0.23341692D-01 -0.32749360D-01 -0.20092180D-01 -0.97454182D-02  0.92926482D-02
  0.27873594D+00  0.14442894D+00  0.19273637D+00  0.99867672D-01 -0.18572959D+00
 -0.96237060D-01  0.14925422D-01  0.18965673D-01  0.19777674D-01 -0.15413186D-01
  0.23519436D-01  0.33040215D-01  0.54788588D-02 -0.16610284D-01 -0.23638184D-01
 -0.14897169D-01 -0.52892891D-02  0.48924995D-02 -0.39409344D+00 -0.20440521D+00
 -0.50267257D+00 -0.26072215D+00 -0.47393051D+00 -0.24581445D+00  0.10456475D-01
 -0.36663926D-01 -0.47691828D-01 -0.49116986D-01 -0.23216339D-01 -0.32614423D-01
 -0.71425558D-02  0.73532109D-01  0.10329825D+00  0.24466860D-01  0.49974241D-01
  0.71609854D-01  0.45545890D-01  0.20018168D-01 -0.18950749D-01  0.51055983D+00
  0.25781542D+00  0.11862208D+01  0.59900135D+00 -0.41350342D+00 -0.20880523D+00
 -0.23181155D-01  0.49349614D-01  0.11580119D+00 -0.39356598D-01
MO    9     MO 0.0        OCC NO =    1.0000000  ORB. ENERGY =   -0.629225
  0.17512786D-01  0.24571162D-01  0.15074744D-01  0.84785242D-02 -0.80846138D-02
 -0.40564382D+00 -0.21018713D+00  0.22042887D+00  0.11421673D+00 -0.69430688D-01
 -0.35975986D-01 -0.38771435D-02 -0.14459896D-01  0.15605264D-01 -0.40788897D-02
  0.17127976D-01  0.24061461D-01  0.82427403D-02 -0.46350209D-01 -0.65961228D-01
 -0.41569842D-01 -0.16328058D-01  0.15103167D-01  0.20103802D+00  0.10427278D+00
  0.33615129D+00  0.17435224D+00 -0.45233086D+00 -0.23461132D+00  0.23294755D-01
  0.20393208D-01  0.39809165D-01 -0.47926948D-01 -0.41967254D-01 -0.58955797D-01
 -0.15908064D-01  0.22195135D-02  0.31179830D-02  0.14208033D-02 -0.17076429D+00
 -0.24469418D+00 -0.15563241D+00 -0.71309836D-01  0.67507419D-01  0.15212216D+01
  0.76816538D+00 -0.37110499D+00 -0.18739545D+00  0.49221356D+00  0.24855118D+00
  0.76955913D-01  0.15860459D+00 -0.40307921D-01  0.49858307D-01
MO   10     MO 0.0        OCC NO =    1.0000000  ORB. ENERGY =   -0.599433
  0.20593327D-01  0.28893290D-01  0.17726428D-01  0.13601659D-01 -0.12969729D-01
  0.37147919D-01  0.19248448D-01 -0.17210647D-01 -0.89178144D-02  0.32547198D+00
  0.16864553D+00 -0.62868734D-02 -0.37419580D-05  0.84518096D-03  0.38493047D-01
  0.10505119D-01  0.14757640D-01  0.14090844D-02  0.15495393D-01  0.22051575D-01
  0.13897263D-01  0.51727055D-02 -0.47846617D-02  0.13677070D+00  0.70939124D-01
 -0.36403984D+00 -0.18881725D+00 -0.22189988D+00 -0.11509324D+00 -0.77609129D-02
  0.13598681D-01 -0.43270350D-01 -0.26147030D-01 -0.34107682D-01 -0.47914632D-01
 -0.14340629D-01  0.37195066D-01  0.52251804D-01  0.13630692D-01  0.25257374D-01
  0.36192182D-01  0.23019250D-01  0.11266992D-01 -0.10666208D-01 -0.41501584D+00
 -0.20956895D+00  0.29696130D+00  0.14995540D+00  0.18446358D+01  0.93147860D+00
 -0.12412330D-01 -0.42526801D-01  0.29608213D-01  0.18675463D+00
MO   11     MO 0.0        OCC NO =    1.0000000  ORB. ENERGY =   -0.558267
  0.28448467D-01  0.39914376D-01  0.24488015D-01  0.40165618D-02 -0.38299532D-02
 -0.13631307D+00 -0.70631550D-01 -0.42997558D+00 -0.22279479D+00  0.15415956D-01
  0.79878831D-02 -0.29537086D-01  0.37265701D-02 -0.21983068D-01  0.73634164D-03
 -0.75637577D-01 -0.10625602D+00 -0.35390464D-01 -0.53865924D-01 -0.76656881D-01
 -0.48310417D-01 -0.10108894D-01  0.93505494D-02  0.50735532D+00  0.26315097D+00
  0.21940517D+00  0.11379930D+00  0.10656176D+00  0.55270594D-01  0.39143672D-01
  0.62309570D-01  0.30190271D-01  0.86025495D-02 -0.70451993D-02 -0.98971291D-02
 -0.24490139D-02 -0.33037998D-01 -0.46411935D-01 -0.16249416D-01  0.22537472D-01
  0.32294740D-01  0.20540367D-01  0.10314275D-01 -0.97642926D-02  0.59674104D+00
  0.30133402D+00  0.16383679D+01  0.82732030D+00  0.15143976D-02  0.76471952D-03
 -0.98237231D-02  0.61180860D-01  0.17597884D+00  0.13507507D-02
MO   12     MO 0.0        OCC NO =    1.0000000  ORB. ENERGY =   -0.431889
 -0.78145028D-02 -0.10964071D-01 -0.67266070D-02 -0.39263343D-02  0.37439176D-02
  0.86126730D-01  0.44627155D-01 -0.84084400D-01 -0.43568907D-01 -0.33288223D+00
 -0.17248521D+00  0.11870157D-01 -0.63078792D-02 -0.74113467D-03 -0.34426671D-01
 -0.40633449D-01 -0.57082061D-01 -0.24177764D-01 -0.43888853D-01 -0.62458459D-01
 -0.39362340D-01 -0.21219966D-01  0.19628096D-01 -0.69279188D+00 -0.35933171D+00
  0.78980566D+00  0.40965003D+00 -0.40925749D+00 -0.21227037D+00  0.14429248D-01
 -0.93347355D-01  0.98669366D-01 -0.56419123D-01  0.13702754D-01  0.19249694D-01
  0.87492695D-02 -0.20186927D-01 -0.28358691D-01 -0.11168122D-01 -0.90350730D-02
 -0.12946675D-01 -0.82344511D-02  0.58747693D-02 -0.55615120D-02 -0.70564710D+00
 -0.35632789D+00  0.23050674D+00  0.11639810D+00  0.78964887D+00  0.39874594D+00
  0.13346450D-01 -0.85414843D-01  0.36374688D-01  0.89944830D-01
MO   13     MO 0.0        OCC NO =    1.0000000  ORB. ENERGY =   -0.338544
  0.11571193D+00  0.16234862D+00  0.99603094D-01  0.39544936D-01 -0.37707687D-01
 -0.40909872D-01 -0.21197730D-01 -0.23583260D-01 -0.12219828D-01  0.73530754D+00
  0.38100464D+00 -0.73184883D-01 -0.11641205D-01  0.29596569D-03  0.87464688D-01
  0.18021046D-01  0.25316051D-01  0.12481911D-01 -0.75230288D-01 -0.10706062D+00
 -0.67471350D-01 -0.28136748D-01  0.26025998D-01 -0.20773998D+00 -0.10774890D+00
  0.44121765D+00  0.22884721D+00 -0.49537284D+00 -0.25693599D+00  0.39986796D-01
 -0.35747487D-01  0.69414152D-01 -0.65154933D-01 -0.39929721D-01 -0.56093460D-01
 -0.29634650D-01  0.19231020D-01  0.27015827D-01  0.14047078D-01 -0.35139491D-01
 -0.50352618D-01 -0.32025687D-01 -0.96616799D-02  0.91464951D-02 -0.32542623D+00
 -0.16432923D+00  0.16378350D+00  0.82705121D-01 -0.10136523D+01 -0.51186009D+00
  0.27009669D-01 -0.42623261D-01  0.26846533D-01 -0.13094654D+00
MO   34     MO 0.0        OCC NO =    1.0000000  ORB. ENERGY =  -20.474501
 -0.13442137D-02 -0.18859874D-02 -0.11570790D-02  0.16133314D-02 -0.15383763D-02
  0.23524687D-02  0.12189478D-02 -0.13703992D-02 -0.71008173D-03  0.50676379D-03
  0.26258313D-03  0.35213355D-02  0.14986877D-02 -0.15961446D-02  0.55937850D-03
 -0.43066040D-03 -0.60499375D-03  0.94943199D-04  0.39128603D-03  0.55684122D-03
  0.35093042D-03 -0.76207790D-03  0.70490867D-03  0.43830920D-03  0.22733868D-03
 -0.86573507D-03 -0.44903248D-03  0.16209047D-03  0.84071779D-04 -0.87475282D-03
 -0.10066057D-02  0.52558565D-03 -0.84584446D-04  0.85693952D-04  0.12038327D-03
 -0.13535802D-03  0.25639374D-03  0.36018313D-03 -0.59669163D-04  0.31574902D+01
  0.45244791D+01  0.28776965D+01 -0.12261923D+00  0.11608087D+00 -0.12978724D-01
 -0.65538163D-02  0.86017678D-02  0.43436015D-02 -0.27637168D-02 -0.13955834D-02
 -0.13897620D-01  0.37636250D-02 -0.23760203D-02  0.76575601D-03
MO   35     MO 0.0        OCC NO =    1.0000000  ORB. ENERGY =  -15.478658
 -0.68383215D-03 -0.95944478D-03 -0.58863248D-03  0.12288013D-02 -0.11717114D-02
 -0.14917800D-02 -0.77297603D-03 -0.65945310D-03 -0.34170014D-03  0.30887506D-03
  0.16004573D-03  0.38324109D-02 -0.19046226D-02 -0.13468197D-02  0.44514748D-03
 -0.32975365D-03 -0.46323948D-03  0.13541525D-03  0.25866497D+01  0.36810748D+01
  0.23198734D+01 -0.10494031D+00  0.97067941D-01  0.49887691D-02  0.25875345D-02
 -0.12384600D-02 -0.64235443D-03  0.13868306D-02  0.71931010D-03 -0.16139080D-01
 -0.24178368D-02 -0.39260272D-03 -0.31865444D-04  0.45031224D-03  0.63260076D-03
  0.14394704D-02  0.49153858D-03  0.69051572D-03  0.14656778D-02  0.23063979D-03
  0.33049190D-03  0.21020218D-03 -0.62343040D-03  0.59018754D-03 -0.37094849D-03
 -0.18731643D-03 -0.10186656D-02 -0.51439164D-03  0.28339198D-03  0.14310335D-03
 -0.75281754D-03  0.88439031D-03  0.34209440D-03 -0.11109136D-03
MO   36     MO 0.0        OCC NO =    1.0000000  ORB. ENERGY =  -11.235650
  0.20655847D+01  0.28981008D+01  0.17780244D+01 -0.68649993D-01  0.65460529D-01
  0.46544468D-03  0.24117335D-03  0.18043111D-03  0.93491615D-04  0.36696567D-02
  0.19014577D-02 -0.10059667D-01  0.40311758D-03 -0.88908320D-03 -0.11296692D-02
 -0.68120649D-03 -0.95696209D-03  0.32602920D-02  0.29397983D-04  0.41836424D-04
  0.26365997D-04  0.34266516D-03 -0.31695925D-03 -0.19040923D-02 -0.98759922D-03
 -0.15863529D-02 -0.82279674D-03 -0.45560890D-03 -0.23631155D-03  0.17557268D-02
  0.79049329D-03  0.86495741D-03  0.43011824D-03 -0.53264474D-03 -0.74826184D-03
  0.40884069D-03 -0.83259819D-04 -0.11696379D-03  0.51544297D-03 -0.26057287D-03
 -0.37338407D-03 -0.23748281D-03 -0.16865013D-03  0.15965729D-03 -0.25057576D-02
 -0.12653227D-02  0.18728067D-02  0.94570399D-03 -0.16537992D-02 -0.83511260D-03
  0.15858100D-02  0.15827942D-03 -0.13655073D-03  0.57935004D-03
MO   37     MO 0.0        OCC NO =    1.0000000  ORB. ENERGY =   -1.251920
 -0.23177193D+00 -0.32518560D+00 -0.19950581D+00 -0.94493555D-01  0.90103405D-01
  0.46063714D-01  0.23868229D-01 -0.11885248D+00 -0.61584227D-01  0.66396964D-01
  0.34404042D-01  0.32145392D-01  0.18368453D-02  0.37910033D-02  0.25009247D-02
  0.16274932D-01  0.22863101D-01 -0.24809289D-02 -0.28367480D+00 -0.40369910D+00
 -0.25441776D+00 -0.99580389D-01  0.92110110D-01  0.11958862D+00  0.62027260D-01
 -0.10262847D-02 -0.53230508D-03  0.17349761D-01  0.89988343D-02  0.89290170D-01
  0.14670681D-01 -0.19751677D-02  0.40350623D-03  0.18968020D-01  0.26646364D-01
  0.10820314D-02  0.18232405D-01  0.25612969D-01  0.88073977D-03 -0.57344753D+00
 -0.82171321D+00 -0.52263281D+00 -0.21585461D+00  0.20434471D+00 -0.28802564D+00
 -0.14544319D+00  0.18138390D+00  0.91592727D-01 -0.19350030D-01 -0.97711100D-02
  0.19187092D+00 -0.34550082D-01  0.20058281D-01 -0.50474220D-02
MO   38     MO 0.0        OCC NO =    1.0000000  ORB. ENERGY =   -1.152935
 -0.39362694D-01 -0.55227487D-01 -0.33882818D-01 -0.17293023D-01  0.16489593D-01
 -0.23698424D+00 -0.12279501D+00 -0.73577677D-02 -0.38124777D-02  0.66787437D-02
  0.34606368D-02 -0.12143564D-02 -0.70477422D-03  0.24302234D-02 -0.26174320D-03
  0.20104251D-02  0.28242547D-02 -0.65745215D-03 -0.49033832D+00 -0.69780305D+00
 -0.43976687D+00 -0.17612511D+00  0.16291263D+00  0.38339163D-01  0.19885448D-01
 -0.35194007D-01 -0.18254144D-01  0.35394761D-01  0.18358269D-01  0.16160123D+00
  0.10629633D-01 -0.48948231D-03  0.28991741D-02  0.39880789D-01  0.56024721D-01
  0.39833124D-02  0.40033867D-01  0.56239765D-01  0.40466418D-02  0.42744848D+00
  0.61250602D+00  0.38957113D+00  0.16431079D+00 -0.15554933D+00  0.10713335D+00
  0.54098715D-01 -0.95815411D-01 -0.48383538D-01  0.16012520D-01  0.80857802D-02
 -0.14752137D+00  0.13188167D-01 -0.13255322D-01  0.28803239D-02
MO   39     MO 0.0        OCC NO =    1.0000000  ORB. ENERGY =   -0.803229
 -0.31920891D+00 -0.44786330D+00 -0.27477025D+00 -0.12918142D+00  0.12317968D+00
 -0.10061807D+00 -0.52135940D-01  0.15125259D+00  0.78372567D-01  0.12955945D+00
  0.67132115D-01  0.78778433D-01 -0.22699459D-02  0.15366558D-01  0.11162684D-01
  0.72616661D-01  0.10201223D+00  0.15247709D-01  0.11452501D+00  0.16298115D+00
  0.10271338D+00  0.43618257D-01 -0.40346122D-01  0.46665315D+00  0.24203989D+00
  0.44907571D+00  0.23292297D+00 -0.11590189D-01 -0.60115055D-02 -0.43248034D-01
  0.42167107D-01  0.39152358D-01 -0.50484504D-02 -0.26959336D-01 -0.37872601D-01
 -0.75455915D-02 -0.50576908D-01 -0.71050678D-01 -0.13735043D-01  0.25954192D+00
  0.37190677D+00  0.23654321D+00  0.99895772D-01 -0.94569081D-01 -0.35643921D+00
 -0.17998973D+00  0.26966129D+00  0.13616982D+00  0.22725505D-01  0.11475611D-01
 -0.10768393D+00 -0.32940160D-01  0.23084194D-01 -0.76208447D-03
MO   40     MO 0.0        OCC NO =    1.0000000  ORB. ENERGY =   -0.686908
  0.54670321D-01  0.76704722D-01  0.47059394D-01  0.24834986D-01 -0.23681158D-01
  0.86736033D-01  0.44942870D-01  0.21530669D+00  0.11156264D+00  0.83832856D-01
  0.43438568D-01 -0.65656208D-02  0.31423014D-02  0.11782690D-01  0.69910076D-02
  0.23285311D-01  0.32711314D-01  0.98370206D-02 -0.11634891D-01 -0.16557675D-01
 -0.10434917D-01 -0.74564394D-02  0.68970754D-02 -0.44789019D+00 -0.23230807D+00
  0.34711260D+00  0.18003756D+00  0.88187213D+00  0.45740232D+00  0.18002324D-02
 -0.46233225D-01  0.34326382D-01  0.87299359D-01  0.93131461D-01  0.13083152D+00
  0.30934154D-01 -0.59338678D-01 -0.83359254D-01 -0.19411279D-01 -0.65961144D-01
 -0.94518052D-01 -0.60116151D-01 -0.26863966D-01  0.25431512D-01  0.19534516D+00
  0.98642691D-01 -0.57704076D-01 -0.29138604D-01  0.16571495D+00  0.83680440D-01
  0.26910234D-01  0.20854007D-01 -0.66776533D-02  0.17685772D-01
MO   41     MO 0.0        OCC NO =    1.0000000  ORB. ENERGY =   -0.619727
 -0.50189457D-01 -0.70417883D-01 -0.43202333D-01 -0.17956396D-01  0.17122145D-01
  0.41501733D+00  0.21504407D+00  0.35015928D+00  0.18143743D+00  0.41824985D-01
  0.21671903D-01  0.25625940D-01  0.19226265D-01  0.27186906D-01  0.52001741D-02
  0.72119096D-01  0.10131324D+00  0.27640974D-01  0.38795327D-01  0.55209834D-01
  0.34794139D-01  0.10910298D-01 -0.10091834D-01 -0.63302720D+00 -0.32833344D+00
 -0.57211274D+00 -0.29673882D+00 -0.17514675D+00 -0.90843704D-01 -0.20623574D-01
 -0.66088005D-01 -0.61612523D-01 -0.20811024D-01  0.46913969D-02  0.65904964D-02
  0.19566062D-02  0.65751288D-01  0.92367719D-01  0.25471358D-01  0.11239201D+00
  0.16105048D+00  0.10243266D+00  0.43764175D-01 -0.41430561D-01 -0.37346779D+00
 -0.18858859D+00  0.43162468D+00  0.21795585D+00 -0.62897452D-01 -0.31761084D-01
 -0.49945437D-01 -0.40709399D-01  0.43166397D-01 -0.86552197D-02
MO   42     MO 0.0        OCC NO =    1.0000000  ORB. ENERGY =   -0.571570
  0.24956978D-01  0.35015672D-01  0.21482593D-01  0.15748074D-01 -0.15016422D-01
 -0.26818461D+00 -0.13896169D+00  0.40518505D+00  0.20994941D+00 -0.44133619D-01
 -0.22868137D-01 -0.26711441D-02 -0.10078238D-01  0.25687900D-01 -0.32834587D-02
  0.52272852D-01  0.73433148D-01  0.27464774D-01 -0.35557866D-01 -0.50602588D-01
 -0.31890576D-01 -0.14571480D-01  0.13478363D-01 -0.14814326D+00 -0.76837754D-01
  0.24503155D+00  0.12709099D+00 -0.44085344D+00 -0.22865831D+00  0.14793067D-01
 -0.18468639D-01  0.32465354D-01 -0.50076198D-01 -0.25097717D-01 -0.35257390D-01
 -0.98753479D-02  0.16968109D-01  0.23836880D-01  0.86454534D-02 -0.19904015D+00
 -0.28521165D+00 -0.18140267D+00 -0.78236490D-01  0.74064726D-01  0.12613441D+01
  0.63693606D+00 -0.73477057D+00 -0.37103426D+00  0.57801359D-01  0.29187729D-01
  0.88932109D-01  0.13855372D+00 -0.81384764D-01  0.57278765D-02
MO   43     MO 0.0        OCC NO =    1.0000000  ORB. ENERGY =   -0.480428
  0.43979863D-01  0.61705566D-01  0.37857208D-01  0.24409871D-01 -0.23275794D-01
 -0.92182083D-01 -0.47764777D-01  0.51139662D-01  0.26498366D-01  0.20242269D+00
  0.10488670D+00 -0.31508646D-02 -0.98772888D-02  0.40893510D-02  0.35827568D-01
  0.80848127D-02  0.11357583D-01  0.30726293D-03  0.20217139D-01  0.28771117D-01
  0.18132027D-01  0.35550679D-02 -0.32883754D-02  0.21492908D+00  0.11147768D+00
 -0.29464838D+00 -0.15282584D+00  0.31325769D-01  0.16247797D-01 -0.15615444D-01
  0.21949379D-01 -0.44825933D-01  0.25388238D-02 -0.15085694D-01 -0.21192454D-01
 -0.76659356D-02  0.16248151D-01  0.22825479D-01  0.52972019D-02 -0.32382343D-01
 -0.46401802D-01 -0.29512857D-01 -0.18739258D-01  0.17740035D-01 -0.89083337D-01
 -0.44984069D-01 -0.59567974D-01 -0.30079810D-01  0.19103358D+01  0.96465492D+00
  0.13163026D-01 -0.61180474D-02 -0.10420915D-01  0.22084280D+00
MO   44     MO 0.0        OCC NO =    1.0000000  ORB. ENERGY =   -0.399696
  0.18296997D-01  0.25671443D-01  0.15749781D-01  0.61472081D-02 -0.58616101D-02
  0.63479334D-01  0.32892252D-01 -0.10686857D+00 -0.55374681D-01 -0.72238943D-01
 -0.37431103D-01 -0.29220603D-02 -0.10279945D-01  0.11784907D-02 -0.46195034D-02
 -0.38740088D-01 -0.54422258D-01 -0.27277009D-01 -0.61145221D-01 -0.87016088D-01
 -0.54838958D-01 -0.26274070D-01  0.24303053D-01 -0.66814865D+00 -0.34654995D+00
  0.82287171D+00  0.42680046D+00 -0.55433533D+00 -0.28751818D+00  0.22396409D-01
 -0.94899081D-01  0.10695723D+00 -0.80272900D-01 -0.30432716D-03 -0.42752022D-03
  0.10276383D-02 -0.11262417D-01 -0.15821496D-01 -0.70520945D-02 -0.14783021D-01
 -0.21183113D-01 -0.13473058D-01  0.36677841D-02 -0.34722087D-02 -0.68090640D+00
 -0.34383468D+00  0.45303305D+00  0.22876635D+00  0.65947086D+00  0.33301045D+00
  0.18301162D-01 -0.85939045D-01  0.64457826D-01  0.76666260D-01
END DATA
 THE  HF ENERGY =   -167.890462262595 THE VIRIAL(-V/T)=   2.00284092
