 m062x/6-31+G**                                          
GAUSSIAN             39 MOL ORBITALS    387 PRIMITIVES       16 NUCLEI
  C    1    (CENTRE  1)  -0.47751973 -3.24975812  0.00000000  CHARGE =  6.0
  C    2    (CENTRE  2)  -3.81925946 -0.03573637  0.00000000  CHARGE =  6.0
  C    3    (CENTRE  3)  -4.94426572 -4.04286563  0.00000000  CHARGE =  6.0
  C    4    (CENTRE  4)  -2.53001174 -4.99663245  0.00000000  CHARGE =  6.0
  C    5    (CENTRE  5)  -4.91567240 -8.18115565  0.00000000  CHARGE =  6.0
  N    6    (CENTRE  6)  -1.35334819 -0.76351096  0.00000000  CHARGE =  7.0
  N    7    (CENTRE  7)  -5.70511460 -1.61929185  0.00000000  CHARGE =  7.0
  N    8    (CENTRE  8)  -2.57288067 -7.60759578  0.00000000  CHARGE =  7.0
  N    9    (CENTRE  9)  -6.47123779 -6.09597592  0.00000000  CHARGE =  7.0
  N   10    (CENTRE 10)  -4.25561017  2.44989024  0.00000000  CHARGE =  7.0
  O   11    (CENTRE 11)   1.77319923 -3.65478473  0.00000000  CHARGE =  8.0
  H   12    (CENTRE 12)   0.00000000  0.57461205  0.00000000  CHARGE =  1.0
  H   13    (CENTRE 13)  -5.67102307-10.05829645  0.00000000  CHARGE =  1.0
  H   14    (CENTRE 14)  -8.34646526 -6.06302730  0.00000000  CHARGE =  1.0
  H   15    (CENTRE 15)  -6.04545853  3.00243012  0.00000000  CHARGE =  1.0
  H   16    (CENTRE 16)  -2.86705456  3.73534148  0.00000000  CHARGE =  1.0
CENTRE ASSIGNMENTS    1  1  1  1  1  1  1  1  1  1  1  1  1  1  1  1  1  1  1  1
CENTRE ASSIGNMENTS    1  1  1  1  1  1  1  1  1  1  1  1  2  2  2  2  2  2  2  2
CENTRE ASSIGNMENTS    2  2  2  2  2  2  2  2  2  2  2  2  2  2  2  2  2  2  2  2
CENTRE ASSIGNMENTS    2  2  2  2  3  3  3  3  3  3  3  3  3  3  3  3  3  3  3  3
CENTRE ASSIGNMENTS    3  3  3  3  3  3  3  3  3  3  3  3  3  3  3  3  4  4  4  4
CENTRE ASSIGNMENTS    4  4  4  4  4  4  4  4  4  4  4  4  4  4  4  4  4  4  4  4
CENTRE ASSIGNMENTS    4  4  4  4  4  4  4  4  5  5  5  5  5  5  5  5  5  5  5  5
CENTRE ASSIGNMENTS    5  5  5  5  5  5  5  5  5  5  5  5  5  5  5  5  5  5  5  5
CENTRE ASSIGNMENTS    6  6  6  6  6  6  6  6  6  6  6  6  6  6  6  6  6  6  6  6
CENTRE ASSIGNMENTS    6  6  6  6  6  6  6  6  6  6  6  6  7  7  7  7  7  7  7  7
CENTRE ASSIGNMENTS    7  7  7  7  7  7  7  7  7  7  7  7  7  7  7  7  7  7  7  7
CENTRE ASSIGNMENTS    7  7  7  7  8  8  8  8  8  8  8  8  8  8  8  8  8  8  8  8
CENTRE ASSIGNMENTS    8  8  8  8  8  8  8  8  8  8  8  8  8  8  8  8  9  9  9  9
CENTRE ASSIGNMENTS    9  9  9  9  9  9  9  9  9  9  9  9  9  9  9  9  9  9  9  9
CENTRE ASSIGNMENTS    9  9  9  9  9  9  9  9 10 10 10 10 10 10 10 10 10 10 10 10
CENTRE ASSIGNMENTS   10 10 10 10 10 10 10 10 10 10 10 10 10 10 10 10 10 10 10 10
CENTRE ASSIGNMENTS   11 11 11 11 11 11 11 11 11 11 11 11 11 11 11 11 11 11 11 11
CENTRE ASSIGNMENTS   11 11 11 11 11 11 11 11 11 11 11 11 12 12 12 12 12 12 12 13
CENTRE ASSIGNMENTS   13 13 13 13 13 13 14 14 14 14 14 14 14 15 15 15 15 15 15 15
CENTRE ASSIGNMENTS   16 16 16 16 16 16 16
TYPE ASSIGNMENTS      1  1  1  1  1  1  1  1  1  2  2  2  3  3  3  4  4  4  1  2
TYPE ASSIGNMENTS      3  4  1  2  3  4  5  6  7  8  9 10  1  1  1  1  1  1  1  1
TYPE ASSIGNMENTS      1  2  2  2  3  3  3  4  4  4  1  2  3  4  1  2  3  4  5  6
TYPE ASSIGNMENTS      7  8  9 10  1  1  1  1  1  1  1  1  1  2  2  2  3  3  3  4
TYPE ASSIGNMENTS      4  4  1  2  3  4  1  2  3  4  5  6  7  8  9 10  1  1  1  1
TYPE ASSIGNMENTS      1  1  1  1  1  2  2  2  3  3  3  4  4  4  1  2  3  4  1  2
TYPE ASSIGNMENTS      3  4  5  6  7  8  9 10  1  1  1  1  1  1  1  1  1  2  2  2
TYPE ASSIGNMENTS      3  3  3  4  4  4  1  2  3  4  1  2  3  4  5  6  7  8  9 10
TYPE ASSIGNMENTS      1  1  1  1  1  1  1  1  1  2  2  2  3  3  3  4  4  4  1  2
TYPE ASSIGNMENTS      3  4  1  2  3  4  5  6  7  8  9 10  1  1  1  1  1  1  1  1
TYPE ASSIGNMENTS      1  2  2  2  3  3  3  4  4  4  1  2  3  4  1  2  3  4  5  6
TYPE ASSIGNMENTS      7  8  9 10  1  1  1  1  1  1  1  1  1  2  2  2  3  3  3  4
TYPE ASSIGNMENTS      4  4  1  2  3  4  1  2  3  4  5  6  7  8  9 10  1  1  1  1
TYPE ASSIGNMENTS      1  1  1  1  1  2  2  2  3  3  3  4  4  4  1  2  3  4  1  2
TYPE ASSIGNMENTS      3  4  5  6  7  8  9 10  1  1  1  1  1  1  1  1  1  2  2  2
TYPE ASSIGNMENTS      3  3  3  4  4  4  1  2  3  4  1  2  3  4  5  6  7  8  9 10
TYPE ASSIGNMENTS      1  1  1  1  1  1  1  1  1  2  2  2  3  3  3  4  4  4  1  2
TYPE ASSIGNMENTS      3  4  1  2  3  4  5  6  7  8  9 10  1  1  1  1  2  3  4  1
TYPE ASSIGNMENTS      1  1  1  2  3  4  1  1  1  1  2  3  4  1  1  1  1  2  3  4
TYPE ASSIGNMENTS      1  1  1  1  2  3  4
EXPONENTS  0.3047525D+04 0.4573695D+03 0.1039487D+03 0.2921016D+02 0.9286663D+01
EXPONENTS  0.3163927D+01 0.7868272D+01 0.1881289D+01 0.5442493D+00 0.7868272D+01
EXPONENTS  0.1881289D+01 0.5442493D+00 0.7868272D+01 0.1881289D+01 0.5442493D+00
EXPONENTS  0.7868272D+01 0.1881289D+01 0.5442493D+00 0.1687145D+00 0.1687145D+00
EXPONENTS  0.1687145D+00 0.1687145D+00 0.4380000D-01 0.4380000D-01 0.4380000D-01
EXPONENTS  0.4380000D-01 0.8000000D+00 0.8000000D+00 0.8000000D+00 0.8000000D+00
EXPONENTS  0.8000000D+00 0.8000000D+00 0.3047525D+04 0.4573695D+03 0.1039487D+03
EXPONENTS  0.2921016D+02 0.9286663D+01 0.3163927D+01 0.7868272D+01 0.1881289D+01
EXPONENTS  0.5442493D+00 0.7868272D+01 0.1881289D+01 0.5442493D+00 0.7868272D+01
EXPONENTS  0.1881289D+01 0.5442493D+00 0.7868272D+01 0.1881289D+01 0.5442493D+00
EXPONENTS  0.1687145D+00 0.1687145D+00 0.1687145D+00 0.1687145D+00 0.4380000D-01
EXPONENTS  0.4380000D-01 0.4380000D-01 0.4380000D-01 0.8000000D+00 0.8000000D+00
EXPONENTS  0.8000000D+00 0.8000000D+00 0.8000000D+00 0.8000000D+00 0.3047525D+04
EXPONENTS  0.4573695D+03 0.1039487D+03 0.2921016D+02 0.9286663D+01 0.3163927D+01
EXPONENTS  0.7868272D+01 0.1881289D+01 0.5442493D+00 0.7868272D+01 0.1881289D+01
EXPONENTS  0.5442493D+00 0.7868272D+01 0.1881289D+01 0.5442493D+00 0.7868272D+01
EXPONENTS  0.1881289D+01 0.5442493D+00 0.1687145D+00 0.1687145D+00 0.1687145D+00
EXPONENTS  0.1687145D+00 0.4380000D-01 0.4380000D-01 0.4380000D-01 0.4380000D-01
EXPONENTS  0.8000000D+00 0.8000000D+00 0.8000000D+00 0.8000000D+00 0.8000000D+00
EXPONENTS  0.8000000D+00 0.3047525D+04 0.4573695D+03 0.1039487D+03 0.2921016D+02
EXPONENTS  0.9286663D+01 0.3163927D+01 0.7868272D+01 0.1881289D+01 0.5442493D+00
EXPONENTS  0.7868272D+01 0.1881289D+01 0.5442493D+00 0.7868272D+01 0.1881289D+01
EXPONENTS  0.5442493D+00 0.7868272D+01 0.1881289D+01 0.5442493D+00 0.1687145D+00
EXPONENTS  0.1687145D+00 0.1687145D+00 0.1687145D+00 0.4380000D-01 0.4380000D-01
EXPONENTS  0.4380000D-01 0.4380000D-01 0.8000000D+00 0.8000000D+00 0.8000000D+00
EXPONENTS  0.8000000D+00 0.8000000D+00 0.8000000D+00 0.3047525D+04 0.4573695D+03
EXPONENTS  0.1039487D+03 0.2921016D+02 0.9286663D+01 0.3163927D+01 0.7868272D+01
EXPONENTS  0.1881289D+01 0.5442493D+00 0.7868272D+01 0.1881289D+01 0.5442493D+00
EXPONENTS  0.7868272D+01 0.1881289D+01 0.5442493D+00 0.7868272D+01 0.1881289D+01
EXPONENTS  0.5442493D+00 0.1687145D+00 0.1687145D+00 0.1687145D+00 0.1687145D+00
EXPONENTS  0.4380000D-01 0.4380000D-01 0.4380000D-01 0.4380000D-01 0.8000000D+00
EXPONENTS  0.8000000D+00 0.8000000D+00 0.8000000D+00 0.8000000D+00 0.8000000D+00
EXPONENTS  0.4173511D+04 0.6274579D+03 0.1429021D+03 0.4023433D+02 0.1282021D+02
EXPONENTS  0.4390437D+01 0.1162636D+02 0.2716280D+01 0.7722184D+00 0.1162636D+02
EXPONENTS  0.2716280D+01 0.7722184D+00 0.1162636D+02 0.2716280D+01 0.7722184D+00
EXPONENTS  0.1162636D+02 0.2716280D+01 0.7722184D+00 0.2120315D+00 0.2120315D+00
EXPONENTS  0.2120315D+00 0.2120315D+00 0.6390000D-01 0.6390000D-01 0.6390000D-01
EXPONENTS  0.6390000D-01 0.8000000D+00 0.8000000D+00 0.8000000D+00 0.8000000D+00
EXPONENTS  0.8000000D+00 0.8000000D+00 0.4173511D+04 0.6274579D+03 0.1429021D+03
EXPONENTS  0.4023433D+02 0.1282021D+02 0.4390437D+01 0.1162636D+02 0.2716280D+01
EXPONENTS  0.7722184D+00 0.1162636D+02 0.2716280D+01 0.7722184D+00 0.1162636D+02
EXPONENTS  0.2716280D+01 0.7722184D+00 0.1162636D+02 0.2716280D+01 0.7722184D+00
EXPONENTS  0.2120315D+00 0.2120315D+00 0.2120315D+00 0.2120315D+00 0.6390000D-01
EXPONENTS  0.6390000D-01 0.6390000D-01 0.6390000D-01 0.8000000D+00 0.8000000D+00
EXPONENTS  0.8000000D+00 0.8000000D+00 0.8000000D+00 0.8000000D+00 0.4173511D+04
EXPONENTS  0.6274579D+03 0.1429021D+03 0.4023433D+02 0.1282021D+02 0.4390437D+01
EXPONENTS  0.1162636D+02 0.2716280D+01 0.7722184D+00 0.1162636D+02 0.2716280D+01
EXPONENTS  0.7722184D+00 0.1162636D+02 0.2716280D+01 0.7722184D+00 0.1162636D+02
EXPONENTS  0.2716280D+01 0.7722184D+00 0.2120315D+00 0.2120315D+00 0.2120315D+00
EXPONENTS  0.2120315D+00 0.6390000D-01 0.6390000D-01 0.6390000D-01 0.6390000D-01
EXPONENTS  0.8000000D+00 0.8000000D+00 0.8000000D+00 0.8000000D+00 0.8000000D+00
EXPONENTS  0.8000000D+00 0.4173511D+04 0.6274579D+03 0.1429021D+03 0.4023433D+02
EXPONENTS  0.1282021D+02 0.4390437D+01 0.1162636D+02 0.2716280D+01 0.7722184D+00
EXPONENTS  0.1162636D+02 0.2716280D+01 0.7722184D+00 0.1162636D+02 0.2716280D+01
EXPONENTS  0.7722184D+00 0.1162636D+02 0.2716280D+01 0.7722184D+00 0.2120315D+00
EXPONENTS  0.2120315D+00 0.2120315D+00 0.2120315D+00 0.6390000D-01 0.6390000D-01
EXPONENTS  0.6390000D-01 0.6390000D-01 0.8000000D+00 0.8000000D+00 0.8000000D+00
EXPONENTS  0.8000000D+00 0.8000000D+00 0.8000000D+00 0.4173511D+04 0.6274579D+03
EXPONENTS  0.1429021D+03 0.4023433D+02 0.1282021D+02 0.4390437D+01 0.1162636D+02
EXPONENTS  0.2716280D+01 0.7722184D+00 0.1162636D+02 0.2716280D+01 0.7722184D+00
EXPONENTS  0.1162636D+02 0.2716280D+01 0.7722184D+00 0.1162636D+02 0.2716280D+01
EXPONENTS  0.7722184D+00 0.2120315D+00 0.2120315D+00 0.2120315D+00 0.2120315D+00
EXPONENTS  0.6390000D-01 0.6390000D-01 0.6390000D-01 0.6390000D-01 0.8000000D+00
EXPONENTS  0.8000000D+00 0.8000000D+00 0.8000000D+00 0.8000000D+00 0.8000000D+00
EXPONENTS  0.5484672D+04 0.8252349D+03 0.1880470D+03 0.5296450D+02 0.1689757D+02
EXPONENTS  0.5799635D+01 0.1553962D+02 0.3599934D+01 0.1013762D+01 0.1553962D+02
EXPONENTS  0.3599934D+01 0.1013762D+01 0.1553962D+02 0.3599934D+01 0.1013762D+01
EXPONENTS  0.1553962D+02 0.3599934D+01 0.1013762D+01 0.2700058D+00 0.2700058D+00
EXPONENTS  0.2700058D+00 0.2700058D+00 0.8450000D-01 0.8450000D-01 0.8450000D-01
EXPONENTS  0.8450000D-01 0.8000000D+00 0.8000000D+00 0.8000000D+00 0.8000000D+00
EXPONENTS  0.8000000D+00 0.8000000D+00 0.1873114D+02 0.2825394D+01 0.6401217D+00
EXPONENTS  0.1612778D+00 0.1100000D+01 0.1100000D+01 0.1100000D+01 0.1873114D+02
EXPONENTS  0.2825394D+01 0.6401217D+00 0.1612778D+00 0.1100000D+01 0.1100000D+01
EXPONENTS  0.1100000D+01 0.1873114D+02 0.2825394D+01 0.6401217D+00 0.1612778D+00
EXPONENTS  0.1100000D+01 0.1100000D+01 0.1100000D+01 0.1873114D+02 0.2825394D+01
EXPONENTS  0.6401217D+00 0.1612778D+00 0.1100000D+01 0.1100000D+01 0.1100000D+01
EXPONENTS  0.1873114D+02 0.2825394D+01 0.6401217D+00 0.1612778D+00 0.1100000D+01
EXPONENTS  0.1100000D+01 0.1100000D+01
MO    1     MO 0.0        OCC NO =    2.0000000  ORB. ENERGY =  -19.611143
  0.24862995D-04  0.45867371D-04  0.74044158D-04  0.96383493D-04  0.82244209D-04
  0.28396949D-04 -0.28109630D-03 -0.12955703D-03  0.36329143D-03  0.23718701D-03
  0.18185995D-03  0.90760863D-04  0.14849228D-05  0.11385446D-05  0.56821357D-06
  0.84387710D-15  0.64703144D-15  0.32291404D-15 -0.99016508D-04  0.61432625D-03
 -0.12111107D-03 -0.23886580D-15  0.23866726D-04  0.72538880D-04 -0.67140394D-04
 -0.22448065D-15 -0.66013741D-03 -0.59353593D-04 -0.92161462D-04  0.19418553D-03
 -0.11447722D-15 -0.26102645D-15 -0.16121456D-05 -0.29740938D-05 -0.48011096D-05
 -0.62496181D-05 -0.53328105D-05 -0.18412913D-05 -0.32254453D-05 -0.14866048D-05
  0.41685950D-05 -0.16782350D-04 -0.12867641D-04 -0.64218549D-05  0.23828018D-04
  0.18269813D-04  0.91179172D-05  0.26657736D-15  0.20439461D-15  0.10200724D-15
 -0.20348875D-03 -0.36754013D-04  0.91132246D-04 -0.95084937D-16  0.20960578D-03
 -0.42523057D-05 -0.21070678D-04  0.21225943D-15  0.38713117D-04 -0.63091859D-04
 -0.29270073D-05  0.45289345D-04  0.12621398D-16  0.56243188D-15  0.68977362D-05
  0.12724976D-04  0.20542057D-04  0.26739655D-04  0.22816996D-04  0.78781604D-05
 -0.35973563D-04 -0.16580182D-04  0.46492562D-04 -0.15999179D-04 -0.12267156D-04
 -0.61221706D-05 -0.28461041D-05 -0.21822121D-05 -0.10890768D-05 -0.53806011D-16
 -0.41255036D-16 -0.20589154D-16 -0.41616658D-03 -0.14927097D-03 -0.38223244D-04
 -0.54286908D-16 -0.50734732D-03 -0.48655119D-04 -0.42302106D-04 -0.49912365D-15
 -0.30570629D-04  0.17711925D-04  0.20522051D-04 -0.10521597D-03 -0.18303575D-15
 -0.43993930D-15 -0.85814649D-05 -0.15831127D-04 -0.25556348D-04 -0.33266771D-04
 -0.28386596D-04 -0.98012095D-05  0.26907983D-04  0.12401865D-04 -0.34776123D-04
  0.36473270D-04  0.27965390D-04  0.13956690D-04 -0.18299763D-04 -0.14031097D-04
 -0.70025009D-05  0.64540123D-16  0.49485272D-16  0.24696619D-16  0.34865664D-03
 -0.61816124D-04  0.52518025D-03  0.90394944D-16  0.21131459D-03 -0.83960421D-04
  0.99238383D-04  0.45620053D-15 -0.12008042D-03  0.99533486D-04 -0.33989883D-04
  0.65721979D-04  0.59149876D-15  0.46133114D-15 -0.33039312D-05 -0.60951078D-05
 -0.98393939D-05 -0.12807967D-04 -0.10929062D-04 -0.37735424D-05  0.86895707D-05
  0.40050152D-05 -0.11230481D-04 -0.22437120D-04 -0.17203361D-04 -0.85856827D-05
 -0.22650039D-04 -0.17366614D-04 -0.86671573D-05  0.98811010D-16  0.75762015D-16
  0.37810555D-16 -0.92366148D-04  0.11776163D-04 -0.74171648D-04 -0.71738350D-16
  0.61805829D-04  0.17228584D-04 -0.18509724D-05 -0.19516719D-16 -0.26721872D-04
 -0.19099992D-04 -0.42480954D-05  0.82521817D-05 -0.28179276D-15  0.44424336D-15
 -0.29594617D-04 -0.54500959D-04 -0.88058702D-04 -0.11524991D-03 -0.98721878D-04
 -0.33961470D-04  0.72836598D-04  0.36006833D-04 -0.94983719D-04  0.56641961D-04
  0.44096671D-04  0.20938659D-04  0.11986810D-03  0.93319227D-04  0.44311270D-04
 -0.44304712D-16 -0.34491926D-16 -0.16377986D-16  0.42152193D-03 -0.18003194D-03
 -0.18607745D-03  0.20037583D-15  0.13549707D-03  0.19837408D-04 -0.23360345D-04
 -0.38802300D-16 -0.20296046D-03 -0.33118567D-04 -0.12325146D-03  0.25032829D-03
 -0.34726247D-15  0.33067312D-16 -0.58424841D-05 -0.10759423D-04 -0.17384296D-04
 -0.22752306D-04 -0.19489389D-04 -0.67045757D-05  0.23636073D-04  0.11684513D-04
 -0.30822995D-04  0.74067029D-05  0.57662365D-05  0.27380131D-05 -0.93946635D-05
 -0.73138955D-05 -0.34728963D-05  0.83943074D-15  0.65351024D-15  0.31030978D-15
  0.15593365D-03  0.80203196D-04 -0.16626083D-04 -0.88051855D-16  0.97942440D-04
  0.71149613D-05 -0.15047645D-04  0.16656961D-15  0.14249653D-04 -0.41871116D-04
 -0.97436993D-05 -0.26650305D-04 -0.13382220D-14  0.45520483D-15 -0.22987375D-04
 -0.42333172D-04 -0.68398873D-04 -0.89519421D-04 -0.76681407D-04 -0.26379292D-04
  0.86019936D-04  0.42524028D-04 -0.11217566D-03  0.11624340D-04  0.90497339D-05
  0.42971338D-05 -0.68447529D-04 -0.53287494D-04 -0.25302787D-04 -0.35397107D-15
 -0.27557213D-15 -0.13085140D-15  0.44067333D-03 -0.17533923D-04  0.19437631D-03
  0.20315116D-15  0.15222341D-03  0.35912819D-04  0.29443280D-04 -0.17948912D-15
 -0.30936557D-04 -0.46196768D-04 -0.85908033D-04  0.59057425D-04  0.82137980D-15
 -0.38713747D-15 -0.11359862D-04 -0.20920134D-04 -0.33801237D-04 -0.44238553D-04
 -0.37894286D-04 -0.13036073D-04  0.36575633D-04  0.18081195D-04 -0.47697033D-04
 -0.26274170D-04 -0.20454861D-04 -0.97126916D-05  0.26752214D-04  0.20827026D-04
  0.98894086D-05  0.81179924D-15  0.63199867D-15  0.30009532D-15  0.11714266D-03
  0.10006645D-03 -0.37230126D-04 -0.21329319D-15 -0.44779713D-04  0.71824954D-05
 -0.15474004D-04  0.30855077D-15 -0.34069429D-04 -0.60462434D-05 -0.45747011D-04
  0.75691375D-05  0.20210658D-15 -0.18048287D-16  0.12670739D-05  0.23334224D-05
  0.37701749D-05  0.49343485D-05  0.42267117D-05  0.14540378D-05 -0.37303397D-05
 -0.18440966D-05  0.48646086D-05 -0.56506336D-05 -0.43991085D-05 -0.20888523D-05
 -0.26603287D-04 -0.20711084D-04 -0.98343552D-05 -0.68158812D-16 -0.53062723D-16
 -0.25196058D-16 -0.32324497D-04  0.18109857D-04  0.41750783D-05  0.12177292D-15
 -0.11254974D-04  0.86784635D-05  0.50440523D-05 -0.16763189D-15 -0.98846255D-05
  0.31783019D-04  0.34996976D-05  0.20401987D-05  0.62331820D-15 -0.41396030D-15
  0.82671493D+00  0.15215968D+01  0.24622308D+01  0.32366713D+01  0.27760742D+01
  0.94918692D+00 -0.14094389D-01 -0.62888890D-02  0.18571173D-01 -0.50059515D-02
 -0.38568157D-02 -0.16933498D-02  0.11463586D-02  0.88320753D-03  0.38777568D-03
 -0.10124313D-14 -0.78002370D-15 -0.34247242D-15  0.16277542D-02  0.49332487D-03
 -0.10482132D-03  0.10009774D-15 -0.64392300D-03  0.11484499D-04  0.30831179D-05
  0.81787796D-16 -0.64267356D-02 -0.64862016D-02 -0.65492586D-02 -0.25094048D-04
 -0.13678206D-14  0.12663377D-15  0.15286158D-04  0.25928218D-04  0.29518359D-04
  0.54663742D-04  0.20224972D-04  0.16845935D-04 -0.18858935D-15 -0.28303491D-05
 -0.48008078D-05 -0.54655500D-05 -0.20597449D-04 -0.84199010D-05  0.14412317D-04
 -0.24330287D-15  0.86129076D-05  0.14609122D-04  0.16631968D-04  0.40773536D-04
  0.17167657D-04  0.50855095D-05 -0.24234813D-15  0.25467672D-05  0.43197992D-05
  0.49179387D-05  0.18549685D-04  0.12015264D-04 -0.60680451D-06 -0.44763837D-15
 -0.19579026D-05 -0.33209734D-05 -0.37808109D-05 -0.10630009D-04  0.44815598D-05
  0.59849726D-05  0.10718149D-15
MO    2     MO 0.0        OCC NO =    2.0000000  ORB. ENERGY =  -14.827496
 -0.15244780D-04 -0.28123643D-04 -0.45400280D-04 -0.59097675D-04 -0.50428153D-04
 -0.17411629D-04  0.39445365D-04  0.18180333D-04 -0.50979550D-04 -0.12180581D-03
 -0.93392972D-04 -0.46609639D-04  0.37008358D-03  0.28375662D-03  0.14161444D-03
  0.47222816D-15  0.36207460D-15  0.18070060D-15  0.46915659D-03 -0.65275506D-03
  0.23607289D-03 -0.17591087D-15  0.27842624D-03 -0.43929076D-05 -0.47713406D-04
 -0.42212467D-15 -0.80861010D-05  0.80759141D-04 -0.12915784D-03 -0.53170906D-04
 -0.16142013D-15  0.71509977D-16  0.54514145D-05  0.10056795D-04  0.16234786D-04
  0.21132867D-04  0.18032714D-04  0.62262628D-05 -0.58153914D-04 -0.26803086D-04
  0.75158651D-04  0.35154304D-03  0.26954090D-03  0.13451980D-03 -0.97341252D-04
 -0.74635098D-04 -0.37248145D-04  0.19694831D-15  0.15100747D-15  0.75363313D-16
  0.40055899D-03  0.46222829D-03 -0.25577977D-03 -0.16874398D-15 -0.12474994D-03
  0.35979712D-04  0.85367639D-05  0.56797821D-16 -0.76127879D-04  0.69558413D-05
 -0.94817008D-04 -0.12508237D-04 -0.35781841D-15 -0.59121572D-15 -0.58513877D-05
 -0.10794668D-04 -0.17425941D-04 -0.22683397D-04 -0.19355784D-04 -0.66830870D-05
  0.18957696D-04  0.87375849D-05 -0.24501100D-04  0.27384985D-04  0.20997070D-04
  0.10479009D-04  0.68920936D-05  0.52844202D-05  0.26372960D-05  0.42782602D-15
  0.32802986D-15  0.16370989D-15  0.55811889D-03  0.37104061D-04  0.10236130D-03
 -0.25213187D-17 -0.20844124D-03  0.46095300D-05  0.12377530D-03 -0.90974553D-15
  0.57770436D-06  0.55810467D-05 -0.38639162D-04 -0.12660063D-04 -0.50172946D-15
 -0.31196938D-15  0.67685392D-05  0.12486633D-04  0.20157297D-04  0.26238812D-04
  0.22389626D-04  0.77305998D-05 -0.42043486D-04 -0.19377804D-04  0.54337386D-04
 -0.95875421D-04 -0.73511192D-04 -0.36687237D-04 -0.12957365D-04 -0.99348854D-05
 -0.49582041D-05 -0.16459975D-17 -0.12620465D-17 -0.62984965D-18 -0.34653773D-03
  0.29149896D-04 -0.51069321D-03 -0.18128229D-15 -0.11147722D-04 -0.11520295D-03
 -0.43185743D-04  0.10056706D-14 -0.82639952D-05 -0.68636456D-04 -0.13491368D-04
 -0.79546096D-04 -0.43890544D-15  0.39600781D-15 -0.11345620D-05 -0.20930453D-05
 -0.33788240D-05 -0.43982250D-05 -0.37530133D-05 -0.12958253D-05  0.49855211D-05
  0.22978221D-05 -0.64433330D-05  0.13674653D-04  0.10484856D-04  0.52326782D-05
  0.25065425D-04  0.19218578D-04  0.95914174D-05  0.20226870D-16  0.15508681D-16
  0.77399188D-17  0.11665431D-03  0.14738849D-04  0.53561635D-04 -0.38992650D-16
  0.11887888D-03 -0.38287443D-05  0.14611444D-04 -0.19904471D-16  0.75194899D-05
  0.77012528D-05 -0.11071302D-04 -0.92668636D-05 -0.40704954D-15 -0.25726803D-15
  0.67491543D+00  0.12429132D+01  0.20082090D+01  0.26283139D+01  0.22513864D+01
  0.77450302D+00 -0.15537825D-01 -0.76811369D-02  0.20262347D-01 -0.51097197D-03
 -0.39779984D-03 -0.18888944D-03  0.38648341D-03  0.30088351D-03  0.14287013D-03
  0.93694906D-17  0.72942981D-17  0.34635908D-17 -0.86558847D-03  0.43797594D-03
  0.25765357D-03 -0.80691142D-16 -0.11142263D-03  0.11402360D-04  0.41049860D-04
  0.16101219D-15 -0.65514526D-02 -0.66336623D-02 -0.65940183D-02  0.25894833D-03
  0.21556045D-15 -0.12835868D-15 -0.84762583D-04 -0.15609738D-03 -0.25221084D-03
 -0.33008977D-03 -0.28275147D-03 -0.97269782D-04 -0.24226595D-04 -0.11976437D-04
  0.31593074D-04 -0.75811467D-04 -0.59020438D-04 -0.28024991D-04 -0.80029170D-04
 -0.62303987D-04 -0.29584137D-04  0.11371952D-14  0.88532462D-15  0.42038344D-15
 -0.10729771D-03 -0.10615077D-03  0.25328499D-03 -0.47722412D-15 -0.18069801D-03
  0.29589750D-05  0.43451546D-04  0.47374012D-15 -0.12763217D-03  0.64464426D-04
  0.63674054D-05  0.93312315D-04  0.22001629D-15  0.82125324D-15  0.28192507D-04
  0.51918858D-04  0.83886730D-04  0.10978970D-03  0.94044714D-04  0.32352471D-04
 -0.71026388D-04 -0.35111955D-04  0.92623087D-04 -0.70098400D-05 -0.54572724D-05
 -0.25913059D-05  0.25536539D-05  0.19880604D-05  0.94400138D-06 -0.56077598D-15
 -0.43657305D-15 -0.20730033D-15 -0.44093505D-03  0.19958086D-04 -0.14993961D-03
  0.36869468D-15 -0.70960781D-04  0.10182622D-04 -0.82374794D-06 -0.46161422D-15
  0.37062864D-04  0.40827486D-04  0.55339994D-04 -0.40028511D-04  0.23691900D-15
  0.13242253D-15  0.17044873D-03  0.31389558D-03  0.50716974D-03  0.66377616D-03
  0.56858377D-03  0.19559940D-03 -0.44247835D-04 -0.21873955D-04  0.57702091D-04
  0.22917132D-04  0.17841353D-04  0.84717056D-05 -0.14257686D-04 -0.11099836D-04
 -0.52705949D-05  0.10179743D-14  0.79250924D-15  0.37631142D-15 -0.13948651D-03
 -0.86226965D-04 -0.13461699D-04 -0.43811568D-15  0.10584019D-03 -0.18460530D-04
  0.29099793D-04  0.47011513D-15  0.26662046D-04  0.40588001D-05  0.37409502D-04
 -0.69558643D-05  0.24021174D-15  0.68310078D-16 -0.44623239D-03 -0.82177423D-03
 -0.13277633D-02 -0.17377567D-02 -0.14885444D-02 -0.51207650D-03  0.53086970D-04
  0.26243588D-04 -0.69228904D-04  0.45951563D-04  0.35774026D-04  0.16986773D-04
  0.11629390D-03  0.90536660D-04  0.42990009D-04  0.44065864D-15  0.34305979D-15
  0.16289692D-15  0.23395296D-03 -0.18494429D-03 -0.10634507D-03 -0.76740691D-16
  0.60134164D-05 -0.30651499D-04 -0.25855822D-05 -0.54340145D-16 -0.63608989D-04
 -0.60794657D-04 -0.74304767D-04  0.15620938D-03 -0.79339728D-16 -0.37708707D-16
 -0.41691192D-04 -0.76734049D-04 -0.12417018D-03 -0.16322517D-03 -0.13999728D-03
 -0.47867448D-04  0.16284544D-03  0.72661320D-04 -0.21456985D-03  0.14894353D-03
  0.11475296D-03  0.50382731D-04 -0.65640900D-05 -0.50572775D-05 -0.22204172D-05
 -0.10273110D-14 -0.79148775D-15 -0.34750576D-15  0.59946746D-03 -0.18373854D-03
 -0.48265870D-04 -0.42589851D-16  0.18884311D-03 -0.46616440D-04  0.14803406D-04
  0.95518338D-16 -0.12012298D-03 -0.20302051D-03 -0.15871970D-03  0.14584373D-03
 -0.11928917D-14  0.27138514D-15  0.26729117D-04  0.45337641D-04  0.51615302D-04
 -0.14010397D-03  0.17134937D-03  0.20080538D-03  0.26264112D-15 -0.73888164D-06
 -0.12532831D-05 -0.14268185D-05  0.28619522D-04 -0.23731252D-05 -0.53823117D-05
  0.98044121D-16 -0.29931186D-05 -0.50768957D-05 -0.57798663D-05 -0.51398259D-04
 -0.13461045D-04  0.42919323D-05  0.10488355D-16 -0.18562930D-04 -0.31486242D-04
 -0.35845974D-04 -0.10081410D-03  0.26648507D-05  0.15422195D-04 -0.22936835D-15
  0.15370530D-04  0.26071329D-04  0.29681286D-04  0.87895749D-04 -0.10463843D-04
  0.43835312D-05  0.37185599D-15
MO    3     MO 0.0        OCC NO =    2.0000000  ORB. ENERGY =  -14.824749
 -0.71861753D-05 -0.13257090D-04 -0.21401054D-04 -0.27857814D-04 -0.23771123D-04
 -0.82075974D-05  0.16978579D-04  0.78254115D-05 -0.21943271D-04  0.33333277D-04
  0.25557843D-04  0.12755155D-04  0.50116570D-04  0.38426207D-04  0.19177371D-04
  0.15084764D-15  0.11566040D-15  0.57722646D-16 -0.21692269D-03 -0.12941092D-03
  0.17349861D-03  0.38796080D-17 -0.48734002D-03  0.40788373D-04  0.12150095D-04
 -0.92124442D-16 -0.72638374D-04 -0.10794799D-04 -0.19847759D-04 -0.19142120D-04
  0.97406863D-15 -0.10905541D-15 -0.13555888D-04 -0.25007966D-04 -0.40370611D-04
 -0.52550540D-04 -0.44841471D-04 -0.15482682D-04  0.43622832D-04  0.20105724D-04
 -0.56378547D-04  0.16069553D-04  0.12321114D-04  0.61490995D-05  0.94416119D-04
  0.72392292D-04  0.36128827D-04  0.13498040D-15  0.10349441D-15  0.51650965D-16
 -0.74396419D-04  0.12085214D-03 -0.27158086D-03 -0.77397170D-16 -0.85511402D-05
  0.12743029D-04 -0.22292502D-04 -0.44954467D-16  0.11851597D-04 -0.58055590D-04
 -0.50967363D-04  0.15108215D-04 -0.97063973D-15  0.87809146D-15  0.14120694D-04
  0.26049924D-04  0.42052654D-04  0.54740061D-04  0.46709793D-04  0.16127769D-04
 -0.54590087D-04 -0.25160521D-04  0.70552727D-04 -0.21349147D-03 -0.16369172D-03
 -0.81693638D-04 -0.24840500D-03 -0.19046120D-03 -0.95053487D-04  0.45046865D-15
  0.34539079D-15  0.17237421D-15  0.74175341D-03 -0.15021871D-03 -0.67795724D-03
 -0.22422908D-16 -0.50095842D-03 -0.75031145D-05  0.77331882D-04 -0.18058103D-15
  0.68092886D-04  0.55315611D-04 -0.65323390D-04  0.27723814D-04 -0.45459301D-15
  0.27944710D-15 -0.66269480D-05 -0.12225425D-04 -0.19735627D-04 -0.25689922D-04
 -0.21921257D-04 -0.75688832D-05  0.31156499D-04  0.14360002D-04 -0.40266945D-04
  0.31593440D-04  0.24223846D-04  0.12089397D-04 -0.55995185D-04 -0.42933556D-04
 -0.21426854D-04  0.29098260D-15  0.22310700D-15  0.11134603D-15 -0.13783921D-03
  0.30778835D-03  0.14520643D-03 -0.46717220D-16  0.73575374D-03  0.16434476D-04
  0.68672445D-04  0.25921174D-15 -0.73200420D-04  0.36388923D-04 -0.47602112D-04
  0.39117951D-04 -0.12274864D-15 -0.91459881D-17  0.63813594D-05  0.11772362D-04
  0.19004243D-04  0.24737877D-04  0.21108875D-04  0.72883874D-05 -0.41656137D-04
 -0.19199276D-04  0.53836773D-04 -0.28795403D-03 -0.22078489D-03 -0.11018713D-03
  0.36159728D-03  0.27724986D-03  0.13836711D-03 -0.25154201D-15 -0.19286646D-15
 -0.96253879D-16  0.45664521D-03  0.56672153D-04  0.27657061D-03  0.77275987D-16
  0.27722899D-03 -0.56631817D-05  0.35575641D-04  0.63344787D-17  0.31023558D-04
  0.75155256D-04 -0.92919999D-04  0.13881662D-04 -0.31452042D-15 -0.32502082D-15
 -0.14794578D-03 -0.27245451D-03 -0.44021226D-03 -0.57614322D-03 -0.49351830D-03
 -0.16977601D-03 -0.37411349D-04 -0.18494332D-04  0.48786862D-04  0.21278564D-04
  0.16565702D-04  0.78659813D-05 -0.20297317D-04 -0.15801785D-04 -0.75032466D-05
 -0.12885147D-15 -0.10031293D-15 -0.47632127D-16 -0.28269422D-03  0.66018414D-04
  0.99744549D-04 -0.83982701D-17 -0.78004387D-04  0.13589437D-05  0.32808690D-04
  0.52282456D-16  0.18846482D-04  0.31207246D-04  0.30658741D-04 -0.14596521D-04
 -0.33293463D-15 -0.11044516D-14 -0.90931493D-04 -0.16745794D-03 -0.27056641D-03
 -0.35411327D-03 -0.30332975D-03 -0.10434895D-03  0.61598961D-04  0.30451498D-04
 -0.80329101D-04 -0.35367983D-04 -0.27534540D-04 -0.13074373D-04 -0.27468506D-04
 -0.21384671D-04 -0.10154198D-04 -0.11938123D-14 -0.92940191D-15 -0.44131290D-15
  0.37347367D-03  0.96923169D-04  0.53714682D-06 -0.13862179D-15 -0.98123243D-04
  0.88197969D-05  0.67483788D-04  0.11767961D-15 -0.35233390D-04 -0.14137960D-03
 -0.83975335D-04 -0.10317831D-03  0.15975137D-14 -0.11427120D-14 -0.11876459D-03
 -0.21871491D-03 -0.35338372D-03 -0.46250332D-03 -0.39617554D-03 -0.13628898D-03
  0.36198199D-05  0.17894610D-05 -0.47204835D-05  0.13909346D-03  0.10828648D-03
  0.51418250D-04  0.91569653D-05  0.71288437D-05  0.33850272D-05 -0.91651719D-15
 -0.71352327D-15 -0.33880609D-15 -0.79118068D-04  0.80924941D-04  0.27012684D-06
  0.19423096D-15 -0.94453437D-04 -0.94975307D-05 -0.31771581D-04 -0.18871635D-15
 -0.10049565D-03  0.22565721D-04 -0.25508565D-04  0.17601669D-04 -0.23214054D-15
  0.65309291D-15  0.67493168D+00  0.12429431D+01  0.20082574D+01  0.26283772D+01
  0.22514406D+01  0.77452166D+00 -0.15541905D-01 -0.76831539D-02  0.20267668D-01
  0.14300799D-03  0.11133400D-03  0.52865323D-04  0.15635043D-03  0.12172131D-03
  0.57797582D-04  0.31948066D-15  0.24872080D-15  0.11810143D-15 -0.88571456D-03
 -0.59091918D-03 -0.20336810D-03 -0.63060922D-16  0.15091472D-03 -0.24448561D-04
  0.77494847D-04  0.73434135D-16 -0.64026263D-02 -0.67011547D-02 -0.65336136D-02
 -0.70846289D-04 -0.22012557D-15  0.26350947D-15 -0.42324674D-04 -0.77944424D-04
 -0.12593695D-03 -0.16482440D-03 -0.14118687D-03 -0.48569919D-04  0.66003773D-04
  0.32629020D-04 -0.86073265D-04  0.62514186D-05  0.48668292D-05  0.23109427D-05
 -0.18663630D-04 -0.14529934D-04 -0.68993264D-05  0.43282521D-15  0.33696134D-15
  0.16000116D-15  0.34748478D-03  0.43969426D-05 -0.12544365D-03 -0.50600023D-16
 -0.95246238D-05 -0.86680412D-06  0.19286008D-04  0.45092659D-16 -0.56627603D-04
 -0.25535364D-05 -0.71382671D-04 -0.48385446D-05  0.54982658D-15 -0.86275224D-15
 -0.13818240D-04 -0.25432938D-04 -0.41155294D-04 -0.54099786D-04 -0.46401072D-04
 -0.15865315D-04  0.56839936D-04  0.25361869D-04 -0.74893939D-04  0.12893130D-04
  0.99334617D-05  0.43613247D-05  0.13473009D-04  0.10380227D-04  0.45574788D-05
 -0.12156950D-15 -0.93662747D-16 -0.41122991D-16  0.22019446D-03 -0.10453713D-03
 -0.14667910D-04 -0.10654284D-16  0.11940014D-03 -0.23920023D-04  0.47168364D-05
  0.61367389D-17  0.83972203D-05 -0.67284275D-04 -0.44790351D-04  0.46216601D-05
  0.12562952D-14 -0.55169747D-16 -0.26071719D-05 -0.44222571D-05 -0.50345834D-05
 -0.32156593D-04  0.88164575D-07  0.20137410D-05  0.90252848D-15 -0.24044981D-05
 -0.40784840D-05 -0.46432098D-05  0.11503717D-03  0.69076400D-04 -0.11826317D-03
  0.29449584D-15  0.15264538D-04  0.25891545D-04  0.29476609D-04 -0.21788060D-03
 -0.31394007D-03  0.60415090D-04 -0.23975998D-16 -0.42234180D-05 -0.71637162D-05