 crystal geometry, m062x/6-31+G**                        
GAUSSIAN             68 MOL ORBITALS    678 PRIMITIVES       29 NUCLEI
  C    1    (CENTRE  1)   2.19127526  5.52999988  0.00000000  CHARGE =  6.0
  C    2    (CENTRE  2)   6.56981498  6.73643195  0.00000000  CHARGE =  6.0
  C    3    (CENTRE  3)   7.30154866  4.31807554  0.00000000  CHARGE =  6.0
  C    4    (CENTRE  4)   5.30689274  2.44836470  0.00000000  CHARGE =  6.0
  N    5    (CENTRE  5)   4.08591543  7.34465405  0.00000000  CHARGE =  7.0
  N    6    (CENTRE  6)   2.90584757  3.08295147  0.00000000  CHARGE =  7.0
  N    7    (CENTRE  7)   5.89231496  0.01844886  0.00000000  CHARGE =  7.0
  O    8    (CENTRE  8)   0.01501545  6.23076999  0.00000000  CHARGE =  8.0
  H    9    (CENTRE  9)   3.51187441  9.13375284  0.00000000  CHARGE =  1.0
  H   10    (CENTRE 10)   7.87916590  8.28420320  0.00000000  CHARGE =  1.0
  H   11    (CENTRE 11)   9.25604776  3.78840457  0.00000000  CHARGE =  1.0
  H   12    (CENTRE 12)   7.68216317 -0.53409098  0.00000000  CHARGE =  1.0
  H   13    (CENTRE 13)   4.51699227 -1.29856493  0.00000000  CHARGE =  1.0
  C   14    (CENTRE 14)  -0.47751969 -3.24975788  0.00000000  CHARGE =  6.0
  C   15    (CENTRE 15)  -3.81925916 -0.03573637  0.00000000  CHARGE =  6.0
  C   16    (CENTRE 16)  -4.94426533 -4.04286533  0.00000000  CHARGE =  6.0
  C   17    (CENTRE 17)  -2.53001155 -4.99663207  0.00000000  CHARGE =  6.0
  C   18    (CENTRE 18)  -4.91567203 -8.18115503  0.00000000  CHARGE =  6.0
  N   19    (CENTRE 19)  -1.35334809 -0.76351090  0.00000000  CHARGE =  7.0
  N   20    (CENTRE 20)  -5.70511416 -1.61929173  0.00000000  CHARGE =  7.0
  N   21    (CENTRE 21)  -2.57288047 -7.60759520  0.00000000  CHARGE =  7.0
  N   22    (CENTRE 22)  -6.47123730 -6.09597546  0.00000000  CHARGE =  7.0
  N   23    (CENTRE 23)  -4.25560985  2.44989005  0.00000000  CHARGE =  7.0
  O   24    (CENTRE 24)   1.77319910 -3.65478444  0.00000000  CHARGE =  8.0
  H   25    (CENTRE 25)   0.00000000  0.57461200  0.00000000  CHARGE =  1.0
  H   26    (CENTRE 26)  -5.67102265-10.05829569  0.00000000  CHARGE =  1.0
  H   27    (CENTRE 27)  -8.34646463 -6.06302683  0.00000000  CHARGE =  1.0
  H   28    (CENTRE 28)  -6.04545807  3.00242990  0.00000000  CHARGE =  1.0
  H   29    (CENTRE 29)  -2.86705434  3.73534119  0.00000000  CHARGE =  1.0
CENTRE ASSIGNMENTS    1  1  1  1  1  1  1  1  1  1  1  1  1  1  1  1  1  1  1  1
CENTRE ASSIGNMENTS    1  1  1  1  1  1  1  1  1  1  1  1  2  2  2  2  2  2  2  2
CENTRE ASSIGNMENTS    2  2  2  2  2  2  2  2  2  2  2  2  2  2  2  2  2  2  2  2
CENTRE ASSIGNMENTS    2  2  2  2  3  3  3  3  3  3  3  3  3  3  3  3  3  3  3  3
CENTRE ASSIGNMENTS    3  3  3  3  3  3  3  3  3  3  3  3  3  3  3  3  4  4  4  4
CENTRE ASSIGNMENTS    4  4  4  4  4  4  4  4  4  4  4  4  4  4  4  4  4  4  4  4
CENTRE ASSIGNMENTS    4  4  4  4  4  4  4  4  5  5  5  5  5  5  5  5  5  5  5  5
CENTRE ASSIGNMENTS    5  5  5  5  5  5  5  5  5  5  5  5  5  5  5  5  5  5  5  5
CENTRE ASSIGNMENTS    6  6  6  6  6  6  6  6  6  6  6  6  6  6  6  6  6  6  6  6
CENTRE ASSIGNMENTS    6  6  6  6  6  6  6  6  6  6  6  6  7  7  7  7  7  7  7  7
CENTRE ASSIGNMENTS    7  7  7  7  7  7  7  7  7  7  7  7  7  7  7  7  7  7  7  7
CENTRE ASSIGNMENTS    7  7  7  7  8  8  8  8  8  8  8  8  8  8  8  8  8  8  8  8
CENTRE ASSIGNMENTS    8  8  8  8  8  8  8  8  8  8  8  8  8  8  8  8  9  9  9  9
CENTRE ASSIGNMENTS    9  9  9 10 10 10 10 10 10 10 11 11 11 11 11 11 11 12 12 12
CENTRE ASSIGNMENTS   12 12 12 12 13 13 13 13 13 13 13 14 14 14 14 14 14 14 14 14
CENTRE ASSIGNMENTS   14 14 14 14 14 14 14 14 14 14 14 14 14 14 14 14 14 14 14 14
CENTRE ASSIGNMENTS   14 14 14 15 15 15 15 15 15 15 15 15 15 15 15 15 15 15 15 15
CENTRE ASSIGNMENTS   15 15 15 15 15 15 15 15 15 15 15 15 15 15 15 16 16 16 16 16
CENTRE ASSIGNMENTS   16 16 16 16 16 16 16 16 16 16 16 16 16 16 16 16 16 16 16 16
CENTRE ASSIGNMENTS   16 16 16 16 16 16 16 17 17 17 17 17 17 17 17 17 17 17 17 17
CENTRE ASSIGNMENTS   17 17 17 17 17 17 17 17 17 17 17 17 17 17 17 17 17 17 17 18
CENTRE ASSIGNMENTS   18 18 18 18 18 18 18 18 18 18 18 18 18 18 18 18 18 18 18 18
CENTRE ASSIGNMENTS   18 18 18 18 18 18 18 18 18 18 18 19 19 19 19 19 19 19 19 19
CENTRE ASSIGNMENTS   19 19 19 19 19 19 19 19 19 19 19 19 19 19 19 19 19 19 19 19
CENTRE ASSIGNMENTS   19 19 19 20 20 20 20 20 20 20 20 20 20 20 20 20 20 20 20 20
CENTRE ASSIGNMENTS   20 20 20 20 20 20 20 20 20 20 20 20 20 20 20 21 21 21 21 21
CENTRE ASSIGNMENTS   21 21 21 21 21 21 21 21 21 21 21 21 21 21 21 21 21 21 21 21
CENTRE ASSIGNMENTS   21 21 21 21 21 21 21 22 22 22 22 22 22 22 22 22 22 22 22 22
CENTRE ASSIGNMENTS   22 22 22 22 22 22 22 22 22 22 22 22 22 22 22 22 22 22 22 23
CENTRE ASSIGNMENTS   23 23 23 23 23 23 23 23 23 23 23 23 23 23 23 23 23 23 23 23
CENTRE ASSIGNMENTS   23 23 23 23 23 23 23 23 23 23 23 24 24 24 24 24 24 24 24 24
CENTRE ASSIGNMENTS   24 24 24 24 24 24 24 24 24 24 24 24 24 24 24 24 24 24 24 24
CENTRE ASSIGNMENTS   24 24 24 25 25 25 25 25 25 25 26 26 26 26 26 26 26 27 27 27
CENTRE ASSIGNMENTS   27 27 27 27 28 28 28 28 28 28 28 29 29 29 29 29 29 29
TYPE ASSIGNMENTS      1  1  1  1  1  1  1  1  1  2  2  2  3  3  3  4  4  4  1  2
TYPE ASSIGNMENTS      3  4  1  2  3  4  5  6  7  8  9 10  1  1  1  1  1  1  1  1
TYPE ASSIGNMENTS      1  2  2  2  3  3  3  4  4  4  1  2  3  4  1  2  3  4  5  6
TYPE ASSIGNMENTS      7  8  9 10  1  1  1  1  1  1  1  1  1  2  2  2  3  3  3  4
TYPE ASSIGNMENTS      4  4  1  2  3  4  1  2  3  4  5  6  7  8  9 10  1  1  1  1
TYPE ASSIGNMENTS      1  1  1  1  1  2  2  2  3  3  3  4  4  4  1  2  3  4  1  2
TYPE ASSIGNMENTS      3  4  5  6  7  8  9 10  1  1  1  1  1  1  1  1  1  2  2  2
TYPE ASSIGNMENTS      3  3  3  4  4  4  1  2  3  4  1  2  3  4  5  6  7  8  9 10
TYPE ASSIGNMENTS      1  1  1  1  1  1  1  1  1  2  2  2  3  3  3  4  4  4  1  2
TYPE ASSIGNMENTS      3  4  1  2  3  4  5  6  7  8  9 10  1  1  1  1  1  1  1  1
TYPE ASSIGNMENTS      1  2  2  2  3  3  3  4  4  4  1  2  3  4  1  2  3  4  5  6
TYPE ASSIGNMENTS      7  8  9 10  1  1  1  1  1  1  1  1  1  2  2  2  3  3  3  4
TYPE ASSIGNMENTS      4  4  1  2  3  4  1  2  3  4  5  6  7  8  9 10  1  1  1  1
TYPE ASSIGNMENTS      2  3  4  1  1  1  1  2  3  4  1  1  1  1  2  3  4  1  1  1
TYPE ASSIGNMENTS      1  2  3  4  1  1  1  1  2  3  4  1  1  1  1  1  1  1  1  1
TYPE ASSIGNMENTS      2  2  2  3  3  3  4  4  4  1  2  3  4  1  2  3  4  5  6  7
TYPE ASSIGNMENTS      8  9 10  1  1  1  1  1  1  1  1  1  2  2  2  3  3  3  4  4
TYPE ASSIGNMENTS      4  1  2  3  4  1  2  3  4  5  6  7  8  9 10  1  1  1  1  1
TYPE ASSIGNMENTS      1  1  1  1  2  2  2  3  3  3  4  4  4  1  2  3  4  1  2  3
TYPE ASSIGNMENTS      4  5  6  7  8  9 10  1  1  1  1  1  1  1  1  1  2  2  2  3
TYPE ASSIGNMENTS      3  3  4  4  4  1  2  3  4  1  2  3  4  5  6  7  8  9 10  1
TYPE ASSIGNMENTS      1  1  1  1  1  1  1  1  2  2  2  3  3  3  4  4  4  1  2  3
TYPE ASSIGNMENTS      4  1  2  3  4  5  6  7  8  9 10  1  1  1  1  1  1  1  1  1
TYPE ASSIGNMENTS      2  2  2  3  3  3  4  4  4  1  2  3  4  1  2  3  4  5  6  7
TYPE ASSIGNMENTS      8  9 10  1  1  1  1  1  1  1  1  1  2  2  2  3  3  3  4  4
TYPE ASSIGNMENTS      4  1  2  3  4  1  2  3  4  5  6  7  8  9 10  1  1  1  1  1
TYPE ASSIGNMENTS      1  1  1  1  2  2  2  3  3  3  4  4  4  1  2  3  4  1  2  3
TYPE ASSIGNMENTS      4  5  6  7  8  9 10  1  1  1  1  1  1  1  1  1  2  2  2  3
TYPE ASSIGNMENTS      3  3  4  4  4  1  2  3  4  1  2  3  4  5  6  7  8  9 10  1
TYPE ASSIGNMENTS      1  1  1  1  1  1  1  1  2  2  2  3  3  3  4  4  4  1  2  3
TYPE ASSIGNMENTS      4  1  2  3  4  5  6  7  8  9 10  1  1  1  1  1  1  1  1  1
TYPE ASSIGNMENTS      2  2  2  3  3  3  4  4  4  1  2  3  4  1  2  3  4  5  6  7
TYPE ASSIGNMENTS      8  9 10  1  1  1  1  2  3  4  1  1  1  1  2  3  4  1  1  1
TYPE ASSIGNMENTS      1  2  3  4  1  1  1  1  2  3  4  1  1  1  1  2  3  4
EXPONENTS  0.3047525D+04 0.4573695D+03 0.1039487D+03 0.2921016D+02 0.9286663D+01
EXPONENTS  0.3163927D+01 0.7868272D+01 0.1881289D+01 0.5442493D+00 0.7868272D+01
EXPONENTS  0.1881289D+01 0.5442493D+00 0.7868272D+01 0.1881289D+01 0.5442493D+00
EXPONENTS  0.7868272D+01 0.1881289D+01 0.5442493D+00 0.1687145D+00 0.1687145D+00
EXPONENTS  0.1687145D+00 0.1687145D+00 0.4380000D-01 0.4380000D-01 0.4380000D-01
EXPONENTS  0.4380000D-01 0.8000000D+00 0.8000000D+00 0.8000000D+00 0.8000000D+00
EXPONENTS  0.8000000D+00 0.8000000D+00 0.3047525D+04 0.4573695D+03 0.1039487D+03
EXPONENTS  0.2921016D+02 0.9286663D+01 0.3163927D+01 0.7868272D+01 0.1881289D+01
EXPONENTS  0.5442493D+00 0.7868272D+01 0.1881289D+01 0.5442493D+00 0.7868272D+01
EXPONENTS  0.1881289D+01 0.5442493D+00 0.7868272D+01 0.1881289D+01 0.5442493D+00
EXPONENTS  0.1687145D+00 0.1687145D+00 0.1687145D+00 0.1687145D+00 0.4380000D-01
EXPONENTS  0.4380000D-01 0.4380000D-01 0.4380000D-01 0.8000000D+00 0.8000000D+00
EXPONENTS  0.8000000D+00 0.8000000D+00 0.8000000D+00 0.8000000D+00 0.3047525D+04
EXPONENTS  0.4573695D+03 0.1039487D+03 0.2921016D+02 0.9286663D+01 0.3163927D+01
EXPONENTS  0.7868272D+01 0.1881289D+01 0.5442493D+00 0.7868272D+01 0.1881289D+01
EXPONENTS  0.5442493D+00 0.7868272D+01 0.1881289D+01 0.5442493D+00 0.7868272D+01
EXPONENTS  0.1881289D+01 0.5442493D+00 0.1687145D+00 0.1687145D+00 0.1687145D+00
EXPONENTS  0.1687145D+00 0.4380000D-01 0.4380000D-01 0.4380000D-01 0.4380000D-01
EXPONENTS  0.8000000D+00 0.8000000D+00 0.8000000D+00 0.8000000D+00 0.8000000D+00
EXPONENTS  0.8000000D+00 0.3047525D+04 0.4573695D+03 0.1039487D+03 0.2921016D+02
EXPONENTS  0.9286663D+01 0.3163927D+01 0.7868272D+01 0.1881289D+01 0.5442493D+00
EXPONENTS  0.7868272D+01 0.1881289D+01 0.5442493D+00 0.7868272D+01 0.1881289D+01
EXPONENTS  0.5442493D+00 0.7868272D+01 0.1881289D+01 0.5442493D+00 0.1687145D+00
EXPONENTS  0.1687145D+00 0.1687145D+00 0.1687145D+00 0.4380000D-01 0.4380000D-01
EXPONENTS  0.4380000D-01 0.4380000D-01 0.8000000D+00 0.8000000D+00 0.8000000D+00
EXPONENTS  0.8000000D+00 0.8000000D+00 0.8000000D+00 0.4173511D+04 0.6274579D+03
EXPONENTS  0.1429021D+03 0.4023433D+02 0.1282021D+02 0.4390437D+01 0.1162636D+02
EXPONENTS  0.2716280D+01 0.7722184D+00 0.1162636D+02 0.2716280D+01 0.7722184D+00
EXPONENTS  0.1162636D+02 0.2716280D+01 0.7722184D+00 0.1162636D+02 0.2716280D+01
EXPONENTS  0.7722184D+00 0.2120315D+00 0.2120315D+00 0.2120315D+00 0.2120315D+00
EXPONENTS  0.6390000D-01 0.6390000D-01 0.6390000D-01 0.6390000D-01 0.8000000D+00
EXPONENTS  0.8000000D+00 0.8000000D+00 0.8000000D+00 0.8000000D+00 0.8000000D+00
EXPONENTS  0.4173511D+04 0.6274579D+03 0.1429021D+03 0.4023433D+02 0.1282021D+02
EXPONENTS  0.4390437D+01 0.1162636D+02 0.2716280D+01 0.7722184D+00 0.1162636D+02
EXPONENTS  0.2716280D+01 0.7722184D+00 0.1162636D+02 0.2716280D+01 0.7722184D+00
EXPONENTS  0.1162636D+02 0.2716280D+01 0.7722184D+00 0.2120315D+00 0.2120315D+00
EXPONENTS  0.2120315D+00 0.2120315D+00 0.6390000D-01 0.6390000D-01 0.6390000D-01
EXPONENTS  0.6390000D-01 0.8000000D+00 0.8000000D+00 0.8000000D+00 0.8000000D+00
EXPONENTS  0.8000000D+00 0.8000000D+00 0.4173511D+04 0.6274579D+03 0.1429021D+03
EXPONENTS  0.4023433D+02 0.1282021D+02 0.4390437D+01 0.1162636D+02 0.2716280D+01
EXPONENTS  0.7722184D+00 0.1162636D+02 0.2716280D+01 0.7722184D+00 0.1162636D+02
EXPONENTS  0.2716280D+01 0.7722184D+00 0.1162636D+02 0.2716280D+01 0.7722184D+00
EXPONENTS  0.2120315D+00 0.2120315D+00 0.2120315D+00 0.2120315D+00 0.6390000D-01
EXPONENTS  0.6390000D-01 0.6390000D-01 0.6390000D-01 0.8000000D+00 0.8000000D+00
EXPONENTS  0.8000000D+00 0.8000000D+00 0.8000000D+00 0.8000000D+00 0.5484672D+04
EXPONENTS  0.8252349D+03 0.1880470D+03 0.5296450D+02 0.1689757D+02 0.5799635D+01
EXPONENTS  0.1553962D+02 0.3599934D+01 0.1013762D+01 0.1553962D+02 0.3599934D+01
EXPONENTS  0.1013762D+01 0.1553962D+02 0.3599934D+01 0.1013762D+01 0.1553962D+02
EXPONENTS  0.3599934D+01 0.1013762D+01 0.2700058D+00 0.2700058D+00 0.2700058D+00
EXPONENTS  0.2700058D+00 0.8450000D-01 0.8450000D-01 0.8450000D-01 0.8450000D-01
EXPONENTS  0.8000000D+00 0.8000000D+00 0.8000000D+00 0.8000000D+00 0.8000000D+00
EXPONENTS  0.8000000D+00 0.1873114D+02 0.2825394D+01 0.6401217D+00 0.1612778D+00
EXPONENTS  0.1100000D+01 0.1100000D+01 0.1100000D+01 0.1873114D+02 0.2825394D+01
EXPONENTS  0.6401217D+00 0.1612778D+00 0.1100000D+01 0.1100000D+01 0.1100000D+01
EXPONENTS  0.1873114D+02 0.2825394D+01 0.6401217D+00 0.1612778D+00 0.1100000D+01
EXPONENTS  0.1100000D+01 0.1100000D+01 0.1873114D+02 0.2825394D+01 0.6401217D+00
EXPONENTS  0.1612778D+00 0.1100000D+01 0.1100000D+01 0.1100000D+01 0.1873114D+02
EXPONENTS  0.2825394D+01 0.6401217D+00 0.1612778D+00 0.1100000D+01 0.1100000D+01
EXPONENTS  0.1100000D+01 0.3047525D+04 0.4573695D+03 0.1039487D+03 0.2921016D+02
EXPONENTS  0.9286663D+01 0.3163927D+01 0.7868272D+01 0.1881289D+01 0.5442493D+00
EXPONENTS  0.7868272D+01 0.1881289D+01 0.5442493D+00 0.7868272D+01 0.1881289D+01
EXPONENTS  0.5442493D+00 0.7868272D+01 0.1881289D+01 0.5442493D+00 0.1687145D+00
EXPONENTS  0.1687145D+00 0.1687145D+00 0.1687145D+00 0.4380000D-01 0.4380000D-01
EXPONENTS  0.4380000D-01 0.4380000D-01 0.8000000D+00 0.8000000D+00 0.8000000D+00
EXPONENTS  0.8000000D+00 0.8000000D+00 0.8000000D+00 0.3047525D+04 0.4573695D+03
EXPONENTS  0.1039487D+03 0.2921016D+02 0.9286663D+01 0.3163927D+01 0.7868272D+01
EXPONENTS  0.1881289D+01 0.5442493D+00 0.7868272D+01 0.1881289D+01 0.5442493D+00
EXPONENTS  0.7868272D+01 0.1881289D+01 0.5442493D+00 0.7868272D+01 0.1881289D+01
EXPONENTS  0.5442493D+00 0.1687145D+00 0.1687145D+00 0.1687145D+00 0.1687145D+00
EXPONENTS  0.4380000D-01 0.4380000D-01 0.4380000D-01 0.4380000D-01 0.8000000D+00
EXPONENTS  0.8000000D+00 0.8000000D+00 0.8000000D+00 0.8000000D+00 0.8000000D+00
EXPONENTS  0.3047525D+04 0.4573695D+03 0.1039487D+03 0.2921016D+02 0.9286663D+01
EXPONENTS  0.3163927D+01 0.7868272D+01 0.1881289D+01 0.5442493D+00 0.7868272D+01
EXPONENTS  0.1881289D+01 0.5442493D+00 0.7868272D+01 0.1881289D+01 0.5442493D+00
EXPONENTS  0.7868272D+01 0.1881289D+01 0.5442493D+00 0.1687145D+00 0.1687145D+00
EXPONENTS  0.1687145D+00 0.1687145D+00 0.4380000D-01 0.4380000D-01 0.4380000D-01
EXPONENTS  0.4380000D-01 0.8000000D+00 0.8000000D+00 0.8000000D+00 0.8000000D+00
EXPONENTS  0.8000000D+00 0.8000000D+00 0.3047525D+04 0.4573695D+03 0.1039487D+03
EXPONENTS  0.2921016D+02 0.9286663D+01 0.3163927D+01 0.7868272D+01 0.1881289D+01
EXPONENTS  0.5442493D+00 0.7868272D+01 0.1881289D+01 0.5442493D+00 0.7868272D+01
EXPONENTS  0.1881289D+01 0.5442493D+00 0.7868272D+01 0.1881289D+01 0.5442493D+00
EXPONENTS  0.1687145D+00 0.1687145D+00 0.1687145D+00 0.1687145D+00 0.4380000D-01
EXPONENTS  0.4380000D-01 0.4380000D-01 0.4380000D-01 0.8000000D+00 0.8000000D+00
EXPONENTS  0.8000000D+00 0.8000000D+00 0.8000000D+00 0.8000000D+00 0.3047525D+04
EXPONENTS  0.4573695D+03 0.1039487D+03 0.2921016D+02 0.9286663D+01 0.3163927D+01
EXPONENTS  0.7868272D+01 0.1881289D+01 0.5442493D+00 0.7868272D+01 0.1881289D+01
EXPONENTS  0.5442493D+00 0.7868272D+01 0.1881289D+01 0.5442493D+00 0.7868272D+01
EXPONENTS  0.1881289D+01 0.5442493D+00 0.1687145D+00 0.1687145D+00 0.1687145D+00
EXPONENTS  0.1687145D+00 0.4380000D-01 0.4380000D-01 0.4380000D-01 0.4380000D-01
EXPONENTS  0.8000000D+00 0.8000000D+00 0.8000000D+00 0.8000000D+00 0.8000000D+00
EXPONENTS  0.8000000D+00 0.4173511D+04 0.6274579D+03 0.1429021D+03 0.4023433D+02
EXPONENTS  0.1282021D+02 0.4390437D+01 0.1162636D+02 0.2716280D+01 0.7722184D+00
EXPONENTS  0.1162636D+02 0.2716280D+01 0.7722184D+00 0.1162636D+02 0.2716280D+01
EXPONENTS  0.7722184D+00 0.1162636D+02 0.2716280D+01 0.7722184D+00 0.2120315D+00
EXPONENTS  0.2120315D+00 0.2120315D+00 0.2120315D+00 0.6390000D-01 0.6390000D-01
EXPONENTS  0.6390000D-01 0.6390000D-01 0.8000000D+00 0.8000000D+00 0.8000000D+00
EXPONENTS  0.8000000D+00 0.8000000D+00 0.8000000D+00 0.4173511D+04 0.6274579D+03
EXPONENTS  0.1429021D+03 0.4023433D+02 0.1282021D+02 0.4390437D+01 0.1162636D+02
EXPONENTS  0.2716280D+01 0.7722184D+00 0.1162636D+02 0.2716280D+01 0.7722184D+00
EXPONENTS  0.1162636D+02 0.2716280D+01 0.7722184D+00 0.1162636D+02 0.2716280D+01
EXPONENTS  0.7722184D+00 0.2120315D+00 0.2120315D+00 0.2120315D+00 0.2120315D+00
EXPONENTS  0.6390000D-01 0.6390000D-01 0.6390000D-01 0.6390000D-01 0.8000000D+00
EXPONENTS  0.8000000D+00 0.8000000D+00 0.8000000D+00 0.8000000D+00 0.8000000D+00
EXPONENTS  0.4173511D+04 0.6274579D+03 0.1429021D+03 0.4023433D+02 0.1282021D+02
EXPONENTS  0.4390437D+01 0.1162636D+02 0.2716280D+01 0.7722184D+00 0.1162636D+02
EXPONENTS  0.2716280D+01 0.7722184D+00 0.1162636D+02 0.2716280D+01 0.7722184D+00
EXPONENTS  0.1162636D+02 0.2716280D+01 0.7722184D+00 0.2120315D+00 0.2120315D+00
EXPONENTS  0.2120315D+00 0.2120315D+00 0.6390000D-01 0.6390000D-01 0.6390000D-01
EXPONENTS  0.6390000D-01 0.8000000D+00 0.8000000D+00 0.8000000D+00 0.8000000D+00
EXPONENTS  0.8000000D+00 0.8000000D+00 0.4173511D+04 0.6274579D+03 0.1429021D+03
EXPONENTS  0.4023433D+02 0.1282021D+02 0.4390437D+01 0.1162636D+02 0.2716280D+01
EXPONENTS  0.7722184D+00 0.1162636D+02 0.2716280D+01 0.7722184D+00 0.1162636D+02
EXPONENTS  0.2716280D+01 0.7722184D+00 0.1162636D+02 0.2716280D+01 0.7722184D+00
EXPONENTS  0.2120315D+00 0.2120315D+00 0.2120315D+00 0.2120315D+00 0.6390000D-01
EXPONENTS  0.6390000D-01 0.6390000D-01 0.6390000D-01 0.8000000D+00 0.8000000D+00
EXPONENTS  0.8000000D+00 0.8000000D+00 0.8000000D+00 0.8000000D+00 0.4173511D+04
EXPONENTS  0.6274579D+03 0.1429021D+03 0.4023433D+02 0.1282021D+02 0.4390437D+01
EXPONENTS  0.1162636D+02 0.2716280D+01 0.7722184D+00 0.1162636D+02 0.2716280D+01
EXPONENTS  0.7722184D+00 0.1162636D+02 0.2716280D+01 0.7722184D+00 0.1162636D+02
EXPONENTS  0.2716280D+01 0.7722184D+00 0.2120315D+00 0.2120315D+00 0.2120315D+00
EXPONENTS  0.2120315D+00 0.6390000D-01 0.6390000D-01 0.6390000D-01 0.6390000D-01
EXPONENTS  0.8000000D+00 0.8000000D+00 0.8000000D+00 0.8000000D+00 0.8000000D+00
EXPONENTS  0.8000000D+00 0.5484672D+04 0.8252349D+03 0.1880470D+03 0.5296450D+02
EXPONENTS  0.1689757D+02 0.5799635D+01 0.1553962D+02 0.3599934D+01 0.1013762D+01
EXPONENTS  0.1553962D+02 0.3599934D+01 0.1013762D+01 0.1553962D+02 0.3599934D+01
EXPONENTS  0.1013762D+01 0.1553962D+02 0.3599934D+01 0.1013762D+01 0.2700058D+00
EXPONENTS  0.2700058D+00 0.2700058D+00 0.2700058D+00 0.8450000D-01 0.8450000D-01
EXPONENTS  0.8450000D-01 0.8450000D-01 0.8000000D+00 0.8000000D+00 0.8000000D+00
EXPONENTS  0.8000000D+00 0.8000000D+00 0.8000000D+00 0.1873114D+02 0.2825394D+01
EXPONENTS  0.6401217D+00 0.1612778D+00 0.1100000D+01 0.1100000D+01 0.1100000D+01
EXPONENTS  0.1873114D+02 0.2825394D+01 0.6401217D+00 0.1612778D+00 0.1100000D+01
EXPONENTS  0.1100000D+01 0.1100000D+01 0.1873114D+02 0.2825394D+01 0.6401217D+00
EXPONENTS  0.1612778D+00 0.1100000D+01 0.1100000D+01 0.1100000D+01 0.1873114D+02
EXPONENTS  0.2825394D+01 0.6401217D+00 0.1612778D+00 0.1100000D+01 0.1100000D+01
EXPONENTS  0.1100000D+01 0.1873114D+02 0.2825394D+01 0.6401217D+00 0.1612778D+00
EXPONENTS  0.1100000D+01 0.1100000D+01 0.1100000D+01
MO    1     MO 0.0        OCC NO =    2.0000000  ORB. ENERGY =  -19.622322
  0.15936431D-04  0.29399603D-04  0.47460075D-04  0.61778916D-04  0.52716061D-04
  0.18201589D-04 -0.23057664D-03 -0.10627256D-03  0.29799936D-03 -0.24594572D-03
 -0.18857558D-03 -0.94112430D-04  0.99030826D-04  0.75930556D-04  0.37894669D-04
  0.00000000D+00  0.00000000D+00  0.00000000D+00  0.12054590D-03 -0.35230954D-03
  0.11745491D-03  0.00000000D+00 -0.19922141D-03 -0.14150044D-03 -0.32580280D-04
  0.00000000D+00 -0.57727204D-03 -0.47850801D-04 -0.11912251D-03  0.37035394D-03
  0.00000000D+00  0.00000000D+00 -0.13046077D-05 -0.24067464D-05 -0.38852349D-05
 -0.50574215D-05 -0.43155069D-05 -0.14900408D-05 -0.44175456D-05 -0.20360427D-05
  0.57092764D-05  0.35817371D-04  0.27462488D-04  0.13705706D-04  0.62485749D-05
  0.47910109D-05  0.23910502D-05  0.00000000D+00  0.00000000D+00  0.00000000D+00
 -0.18303901D-03  0.58071638D-04  0.42510705D-04  0.00000000D+00  0.42579711D-03
 -0.44014123D-04 -0.21499739D-04  0.00000000D+00 -0.69751629D-05 -0.14411121D-04
 -0.68986815D-05 -0.11145601D-03  0.00000000D+00  0.00000000D+00 -0.15498791D-05
 -0.28592243D-05 -0.46156746D-05 -0.60082369D-05 -0.51268394D-05 -0.17701744D-05
  0.64035123D-05  0.29513730D-05 -0.82759579D-05  0.91743418D-05  0.70343034D-05
  0.35106104D-05  0.39124101D-05  0.29997879D-05  0.14971044D-05  0.00000000D+00
  0.00000000D+00  0.00000000D+00  0.52946385D-04 -0.50591380D-04  0.34334537D-04
  0.00000000D+00 -0.11426865D-02  0.85270730D-04  0.51905451D-04  0.00000000D+00
  0.51198360D-05 -0.11629135D-04 -0.15361262D-05 -0.24083528D-04  0.00000000D+00
  0.00000000D+00 -0.32248227D-05 -0.59491683D-05 -0.96038022D-05 -0.12501297D-04
 -0.10667379D-04 -0.36831897D-05 -0.26091942D-05 -0.12025752D-05  0.33721465D-05
  0.11289780D-04  0.86562875D-05  0.43200941D-05 -0.39183502D-04 -0.30043424D-04
 -0.14993774D-04  0.00000000D+00  0.00000000D+00  0.00000000D+00 -0.22880973D-03
  0.63272255D-04  0.21025850D-04  0.00000000D+00  0.94352831D-03  0.13319529D-03
  0.13860608D-03  0.00000000D+00  0.35294896D-04 -0.83986228D-04 -0.13129455D-04
  0.86259878D-04  0.00000000D+00  0.00000000D+00 -0.21023245D-04 -0.38716061D-04
 -0.62554608D-04 -0.81870534D-04 -0.70129450D-04 -0.24125343D-04  0.45583106D-04
  0.22534047D-04 -0.59443371D-04  0.20610753D-04  0.16045801D-04  0.76191137D-05
  0.14015646D-03  0.10911404D-03  0.51811208D-04  0.00000000D+00  0.00000000D+00
  0.00000000D+00  0.23180341D-03  0.10339261D-03 -0.18128906D-03  0.00000000D+00
  0.16613188D-03 -0.34663552D-04 -0.24557878D-04  0.00000000D+00 -0.24886271D-03
  0.55890089D-04 -0.10528422D-03 -0.53602203D-04  0.00000000D+00  0.00000000D+00
 -0.26217204D-04 -0.48281172D-04 -0.78009221D-04 -0.10209730D-03 -0.87455488D-04
 -0.30085701D-04  0.69974297D-04  0.34591853D-04 -0.91251090D-04 -0.49527246D-04
 -0.38557752D-04 -0.18308584D-04 -0.76480336D-04 -0.59541163D-04 -0.28272250D-04
  0.00000000D+00  0.00000000D+00  0.00000000D+00  0.35644303D-03  0.17083941D-03
  0.94868196D-04  0.00000000D+00  0.91259989D-04 -0.83147433D-05 -0.10669391D-04
  0.00000000D+00 -0.15238784D-03 -0.26069706D-04 -0.12151132D-03  0.31098135D-03
  0.00000000D+00  0.00000000D+00 -0.41065965D-05 -0.75626407D-05 -0.12219167D-04
 -0.15992263D-04 -0.13698806D-04 -0.47125481D-05  0.14554204D-04  0.71948831D-05
 -0.18979641D-04 -0.10013825D-05 -0.77959226D-06 -0.37017798D-06  0.24043784D-04
  0.18718470D-04  0.88881915D-05  0.00000000D+00  0.00000000D+00  0.00000000D+00
  0.67141330D-04 -0.31022052D-04  0.50516953D-04  0.00000000D+00  0.18957854D-04
 -0.21248661D-04 -0.15847430D-04  0.00000000D+00 -0.27051101D-04  0.34964587D-04
 -0.17953401D-04 -0.21077811D-04  0.00000000D+00  0.00000000D+00  0.82667361D+00
  0.15215207D+01  0.24621078D+01  0.32365096D+01  0.27759355D+01  0.94913948D+00
 -0.13997171D-01 -0.62455105D-02  0.18443076D-01  0.47006383D-02  0.36215884D-02
  0.15900724D-02 -0.14901976D-02 -0.11481169D-02 -0.50408518D-03  0.00000000D+00
  0.00000000D+00  0.00000000D+00  0.19632700D-02 -0.44567442D-03  0.10340873D-03
  0.00000000D+00 -0.67910895D-03  0.23362327D-04  0.25195471D-04  0.00000000D+00
 -0.65781611D-02 -0.66218787D-02 -0.66825734D-02 -0.23244456D-04  0.00000000D+00
  0.00000000D+00  0.11942510D-04  0.20256757D-04  0.23061601D-04  0.60861595D-04
 -0.26166358D-04  0.23484064D-04  0.00000000D+00  0.43670861D-05  0.74074046D-05
  0.84330684D-05 -0.16204537D-04 -0.22619636D-04 -0.25618902D-04  0.00000000D+00
  0.95840845D-06  0.16256421D-05  0.18507361D-05  0.40678624D-04 -0.29790932D-05
 -0.69859611D-05  0.00000000D+00  0.18009220D-05  0.30547046D-05  0.34776732D-05
  0.22365100D-04 -0.13254438D-04 -0.10445534D-04  0.00000000D+00 -0.22984539D-05
 -0.38986128D-05 -0.44384329D-05  0.43472398D-05  0.36500145D-05 -0.56381033D-05
  0.00000000D+00 -0.30699373D-06 -0.56634348D-06 -0.91425398D-06 -0.11900870D-05
 -0.10155034D-05 -0.35062893D-06  0.21691692D-05  0.99976808D-06 -0.28034541D-05
  0.18604070D-05  0.14264421D-05  0.71189456D-06 -0.31912289D-05 -0.24468319D-05
 -0.12211406D-05  0.00000000D+00  0.00000000D+00  0.00000000D+00  0.49328721D-04
  0.38227589D-04  0.37070079D-04  0.00000000D+00 -0.11711870D-02  0.13208028D-03
  0.16154984D-03  0.00000000D+00  0.48751634D-05  0.73366436D-05 -0.49976897D-05
  0.22613423D-05  0.00000000D+00  0.00000000D+00  0.25475830D-05  0.46997933D-05
  0.75869236D-05  0.98759202D-05  0.84271406D-05  0.29096891D-05 -0.96948080D-05
 -0.44683281D-05  0.12529658D-04 -0.33860248D-06 -0.25961890D-06 -0.12956803D-06
  0.15443011D-04  0.11840722D-04  0.59093499D-05  0.00000000D+00  0.00000000D+00
  0.00000000D+00 -0.58647945D-04 -0.95273271D-04 -0.36366456D-04  0.00000000D+00
  0.25357532D-03 -0.92512411D-04 -0.13295821D-03  0.00000000D+00 -0.13773078D-05
  0.36372915D-07  0.10869679D-04  0.97982390D-05  0.00000000D+00  0.00000000D+00
 -0.52741012D-07 -0.97296868D-07 -0.15706731D-06 -0.20445497D-06 -0.17446180D-06
 -0.60237467D-07  0.20386761D-05  0.93962394D-06 -0.26348036D-05 -0.14043310D-05
 -0.10767519D-05 -0.53737469D-06  0.44046725D-05  0.33772235D-05  0.16854712D-05
  0.00000000D+00  0.00000000D+00  0.00000000D+00  0.35005694D-04 -0.72782256D-06
  0.67331952D-05  0.00000000D+00  0.90730877D-04  0.32982466D-04 -0.14349635D-03
  0.00000000D+00  0.16042803D-05  0.12261968D-04 -0.10253150D-05 -0.13377570D-05
  0.00000000D+00  0.00000000D+00  0.10989428D-05  0.20273348D-05  0.32727470D-05
  0.42601442D-05  0.36351888D-05  0.12551433D-05 -0.32617637D-05 -0.15033439D-05
  0.42155332D-05  0.64763760D-06  0.49656744D-06  0.24782195D-06  0.27976156D-05
  0.21450342D-05  0.10705224D-05  0.00000000D+00  0.00000000D+00  0.00000000D+00
  0.23386285D-04  0.16967465D-04 -0.42089717D-05  0.00000000D+00  0.75708099D-03
  0.22240325D-03  0.10963305D-03  0.00000000D+00  0.11410076D-05  0.44807377D-05
  0.48676535D-05  0.30038515D-05  0.00000000D+00  0.00000000D+00 -0.45929595D-06
 -0.84731135D-06 -0.13678232D-05 -0.17804994D-05 -0.15193034D-05 -0.52457895D-06
  0.14861556D-05  0.68496774D-06 -0.19207210D-05  0.40846391D-05  0.31318422D-05
  0.15630087D-05  0.77829063D-07  0.59674389D-07  0.29781702D-07  0.00000000D+00
  0.00000000D+00  0.00000000D+00 -0.30496641D-05 -0.80132181D-05  0.65849846D-05
  0.00000000D+00  0.33271918D-04  0.46104456D-05  0.11412129D-05  0.00000000D+00
 -0.65165882D-05  0.19558780D-05 -0.11556640D-05 -0.76084894D-06  0.00000000D+00
  0.00000000D+00  0.21696395D-05  0.39955725D-05  0.64557566D-05  0.84491976D-05
  0.72374950D-05  0.24897821D-05 -0.80264865D-05 -0.39679004D-05  0.10467067D-04
  0.35672325D-04  0.27771475D-04  0.13186878D-04  0.94605222D-05  0.73651676D-05
  0.34972421D-05  0.00000000D+00  0.00000000D+00  0.00000000D+00 -0.41418034D-05
 -0.86048029D-04  0.10996062D-04  0.00000000D+00 -0.14067751D-04 -0.34412980D-04
  0.26783444D-05  0.00000000D+00  0.10929615D-04 -0.51391822D-05  0.11840552D-04
 -0.28815472D-04  0.00000000D+00  0.00000000D+00  0.33333572D-05  0.61386557D-05
  0.99183953D-05  0.12981047D-04  0.11119430D-04  0.38252129D-05 -0.13901483D-04
 -0.68722098D-05  0.18128449D-04  0.65814999D-05  0.51238028D-05  0.24329628D-05
 -0.11678873D-04 -0.90921890D-05 -0.43172930D-05  0.00000000D+00  0.00000000D+00
  0.00000000D+00 -0.84612684D-04 -0.25720017D-04 -0.74033686D-05  0.00000000D+00
 -0.10688730D-03 -0.17352786D-04 -0.91219711D-05  0.00000000D+00  0.70055819D-05
 -0.67367007D-05  0.12273399D-04 -0.14162468D-05  0.00000000D+00  0.00000000D+00
  0.79934789D-06  0.14720659D-05  0.23784575D-05  0.31128896D-05  0.26664689D-05
  0.91729619D-06 -0.24084235D-05 -0.11906062D-05  0.31407427D-05 -0.44110388D-06
 -0.34340641D-06 -0.16306151D-06  0.33291857D-05  0.25918242D-05  0.12306898D-05
  0.00000000D+00  0.00000000D+00  0.00000000D+00 -0.85253292D-05 -0.64778681D-05
 -0.10094676D-04  0.00000000D+00  0.24310243D-04 -0.11583534D-04  0.29764024D-06
  0.00000000D+00  0.69704400D-05 -0.63817357D-06  0.16156031D-05 -0.69930636D-06
  0.00000000D+00  0.00000000D+00  0.20640230D-05  0.38010709D-05  0.61414950D-05
  0.80378967D-05  0.68851789D-05  0.23685813D-05 -0.62662297D-05 -0.30977159D-05
  0.81715760D-05 -0.68393570D-06 -0.53245486D-06 -0.25282840D-06  0.66632008D-05
  0.51874082D-05  0.24631649D-05  0.00000000D+00  0.00000000D+00  0.00000000D+00
 -0.21672118D-04 -0.37598205D-05 -0.63682557D-05  0.00000000D+00 -0.73919999D-05
 -0.67932203D-06  0.20150580D-04  0.00000000D+00  0.69576522D-05  0.20590700D-05
  0.84725473D-05 -0.48801008D-05  0.00000000D+00  0.00000000D+00 -0.34866824D-05
 -0.64210170D-05 -0.10374614D-04 -0.13578140D-04 -0.11630893D-04 -0.40011621D-05
  0.20609856D-04  0.10188500D-04 -0.26876609D-04 -0.84976956D-04 -0.66155917D-04
 -0.31413170D-04 -0.70503956D-04 -0.54888456D-04 -0.26062980D-04  0.00000000D+00
  0.00000000D+00  0.00000000D+00  0.33234399D-04  0.66422506D-04  0.10275611D-04
  0.00000000D+00  0.18842582D-03  0.48196977D-04  0.24684682D-04  0.00000000D+00
 -0.22901133D-04 -0.10568261D-04 -0.17220672D-04 -0.33809882D-04  0.00000000D+00
  0.00000000D+00  0.54755544D-05  0.10077943D-04  0.16308014D-04  0.21437341D-04
  0.18386683D-04  0.62867191D-05 -0.56706476D-05 -0.25302319D-05  0.74718087D-05
 -0.70058292D-05 -0.53976137D-05 -0.23698432D-05 -0.29563662D-05 -0.22777208D-05
 -0.10000421D-05  0.00000000D+00  0.00000000D+00  0.00000000D+00 -0.29234780D-04
  0.21521427D-04 -0.65760232D-05  0.00000000D+00 -0.33688952D-04 -0.99899919D-05
 -0.15747835D-04  0.00000000D+00 -0.21455430D-05  0.26291190D-05  0.50692510D-05
  0.11963760D-04  0.00000000D+00  0.00000000D+00  0.16078254D-06  0.27271761D-06
  0.31047936D-06  0.95152377D-04  0.83738236D-05  0.77129741D-06  0.00000000D+00
 -0.10731574D-05 -0.18202781D-05 -0.20723222D-05  0.10832119D-04  0.25776798D-05
  0.19873036D-05  0.00000000D+00  0.95632964D-06  0.16221161D-05  0.18467218D-05