PBEPBE/3-21g/Auto SCF=Tight                                             
SP        RPBEPBE                                                     3-21G/Auto          
Number of atoms                            I                2
Info1-9                                    I   N=           9
          12          11           0           0           0         110
           1          18         902
Charge                                     I                0
Multiplicity                               I                1
Number of electrons                        I               12
Number of alpha electrons                  I                6
Number of beta electrons                   I                6
Number of basis functions                  I               18
Number of independent functions            I               18
Number of point charges in /Mol/           I                0
Number of translation vectors              I                2
Atomic numbers                             I   N=           2
           6           6
Nuclear charges                            R   N=           2
  6.00000000E+00  6.00000000E+00
Current cartesian coordinates              R   N=           6
  0.00000000E+00 -1.35032082E+00  0.00000000E+00  0.00000000E+00  1.35032082E+00
  0.00000000E+00
Translation vectors                        R   N=           6
  4.67766744E+00  0.00000000E+00  0.00000000E+00 -2.30537518E+00  4.03163055E+00
  0.00000000E+00
Force Field                                I                0
Int Atom Types                             I   N=           2
           0           0
MM charges                                 R   N=           2
  0.00000000E+00  0.00000000E+00
Integer atomic weights                     I   N=           2
          12          12
Real atomic weights                        R   N=           2
  1.20000000E+01  1.20000000E+01
Atom fragment info                         I   N=           2
           0           0
Atom residue num                           I   N=           2
           0           0
Nuclear spins                              I   N=           2
           0           0
Nuclear ZEff                               R   N=           2
 -3.60000000E+00 -3.60000000E+00
Nuclear QMom                               R   N=           2
  0.00000000E+00  0.00000000E+00
Nuclear GFac                               R   N=           2
  0.00000000E+00  0.00000000E+00
MicOpt                                     I   N=           2
          -1          -1
Number of contracted shells                I                6
Number of primitive shells                 I               12
Pure/Cartesian d shells                    I                1
Pure/Cartesian f shells                    I                0
Highest angular momentum                   I                1
Largest degree of contraction              I                3
Shell types                                I   N=           6
           0          -1          -1           0          -1          -1
Number of primitives per shell             I   N=           6
           3           2           1           3           2           1
Shell to atom map                          I   N=           6
           1           1           1           2           2           2
Primitive exponents                        R   N=          12
  1.72256000E+02  2.59109000E+01  5.53335000E+00  3.66498000E+00  7.70545000E-01
  1.95857000E-01  1.72256000E+02  2.59109000E+01  5.53335000E+00  3.66498000E+00
  7.70545000E-01  1.95857000E-01
Contraction coefficients                   R   N=          12
  6.17669074E-02  3.58794043E-01  7.00713084E-01 -3.95895162E-01  1.21583436E+00
  1.00000000E+00  6.17669074E-02  3.58794043E-01  7.00713084E-01 -3.95895162E-01
  1.21583436E+00  1.00000000E+00
P(S=P) Contraction coefficients            R   N=          12
  0.00000000E+00  0.00000000E+00  0.00000000E+00  2.36459947E-01  8.60618806E-01
  1.00000000E+00  0.00000000E+00  0.00000000E+00  0.00000000E+00  2.36459947E-01
  8.60618806E-01  1.00000000E+00
Coordinates of each shell                  R   N=          18
  0.00000000E+00 -1.35032082E+00  0.00000000E+00  0.00000000E+00 -1.35032082E+00
  0.00000000E+00  0.00000000E+00 -1.35032082E+00  0.00000000E+00  0.00000000E+00
  1.35032082E+00  0.00000000E+00  0.00000000E+00  1.35032082E+00  0.00000000E+00
  0.00000000E+00  1.35032082E+00  0.00000000E+00
Density Number of contracted shells        I               18
Density Number of primitive shells         I               18
Density Pure/Cartesian d shells            I                0
Density Pure/Cartesian f shells            I                0
Density Highest angular momentum           I                2
Density Largest degree of contraction      I                1
Density Shell types                        I   N=          18
           0           0           0          -1          -2          -1
          -2          -1          -2           0           0           0
          -1          -2          -1          -2          -1          -2
Density Number of primitives per shell     I   N=          18
           1           1           1           1           1           1
           1           1           1           1           1           1
           1           1           1           1           1           1
Density Shell to atom map                  I   N=          18
           1           1           1           1           1           1
           1           1           1           2           2           2
           2           2           2           2           2           2
Density Primitive exponents                R   N=          18
  3.44512000E+02  5.18218000E+01  1.10667000E+01  7.32996000E+00  7.32996000E+00
  1.54109000E+00  1.54109000E+00  3.91714000E-01  3.91714000E-01  3.44512000E+02
  5.18218000E+01  1.10667000E+01  7.32996000E+00  7.32996000E+00  1.54109000E+00
  1.54109000E+00  3.91714000E-01  3.91714000E-01
Density Contraction coefficients           R   N=          18
  1.00000000E+00  1.00000000E+00  1.00000000E+00  1.00000000E+00  1.00000000E+00
  1.00000000E+00  1.00000000E+00  1.00000000E+00  1.00000000E+00  1.00000000E+00
  1.00000000E+00  1.00000000E+00  1.00000000E+00  1.00000000E+00  1.00000000E+00
  1.00000000E+00  1.00000000E+00  1.00000000E+00
Density P(S=P) Contraction coefficients    R   N=          18
  0.00000000E+00  0.00000000E+00  0.00000000E+00  1.00000000E+00  0.00000000E+00
  1.00000000E+00  0.00000000E+00  1.00000000E+00  0.00000000E+00  0.00000000E+00
  0.00000000E+00  0.00000000E+00  1.00000000E+00  0.00000000E+00  1.00000000E+00
  0.00000000E+00  1.00000000E+00  0.00000000E+00
Density Coordinates of each shell          R   N=          54
  0.00000000E+00 -1.35032082E+00  0.00000000E+00  0.00000000E+00 -1.35032082E+00
  0.00000000E+00  0.00000000E+00 -1.35032082E+00  0.00000000E+00  0.00000000E+00
 -1.35032082E+00  0.00000000E+00  0.00000000E+00 -1.35032082E+00  0.00000000E+00
  0.00000000E+00 -1.35032082E+00  0.00000000E+00  0.00000000E+00 -1.35032082E+00
  0.00000000E+00  0.00000000E+00 -1.35032082E+00  0.00000000E+00  0.00000000E+00
 -1.35032082E+00  0.00000000E+00  0.00000000E+00  1.35032082E+00  0.00000000E+00
  0.00000000E+00  1.35032082E+00  0.00000000E+00  0.00000000E+00  1.35032082E+00
  0.00000000E+00  0.00000000E+00  1.35032082E+00  0.00000000E+00  0.00000000E+00
  1.35032082E+00  0.00000000E+00  0.00000000E+00  1.35032082E+00  0.00000000E+00
  0.00000000E+00  1.35032082E+00  0.00000000E+00  0.00000000E+00  1.35032082E+00
  0.00000000E+00  0.00000000E+00  1.35032082E+00  0.00000000E+00
Constraint Structure                       R   N=           6
  0.00000000E+00 -1.35032082E+00  0.00000000E+00  0.00000000E+00  1.35032082E+00
  0.00000000E+00
Num ILSW                                   I              100
ILSW                                       I   N=         100
           0           1           0           0           2           0
           0           0           0           0        1009          -1
           0           0           0           0           0           0
           0           0           0           0           0           0
           1           1           0           0           0           0
           0           0      990000        4097          -1           0
           0           0           0           0           0           0
           0           0           0           1           0           0
           0           0         253           0           0           0
           0           0           4          40           0           0
           0           0           0           0           0           0
           0           0           0           0           0           0
           0           0           0           0           0           0
           0           0           0           0           0           0
           0           0           0           0           0           0
           0           0           0           0           0           0
           0           0           0           0
Num RLSW                                   I               40
RLSW                                       R   N=          40
  1.00000000E+00  1.00000000E+00  1.00000000E+00  1.00000000E+00  0.00000000E+00
  0.00000000E+00  0.00000000E+00  1.00000000E+00  0.00000000E+00  0.00000000E+00
  0.00000000E+00  0.00000000E+00  1.00000000E+00  0.00000000E+00  0.00000000E+00
  0.00000000E+00  0.00000000E+00  1.00000000E+00  0.00000000E+00  0.00000000E+00
  0.00000000E+00  0.00000000E+00  1.00000000E+00  0.00000000E+00  0.00000000E+00
  0.00000000E+00  0.00000000E+00  1.00000000E+00  0.00000000E+00  0.00000000E+00
  0.00000000E+00  0.00000000E+00  0.00000000E+00  0.00000000E+00  0.00000000E+00
  0.00000000E+00  0.00000000E+00  0.00000000E+00  1.00000000E+00  1.00000000E+00
Virial Ratio                               R      2.018720485393462E+00
SCF Energy                                 R     -7.573528575489625E+01
Total Energy                               R     -7.573528575489625E+01
RMS Density                                R      1.273916121149400E-09
Length of integer PBC data                 I             7824
Integer PBC data                           I   N=        7824
           2         253         253        2601           7         253
         253         507         507        1357         724           0
          38          38           0           0           0           0
           0           0           0           0           0           0
           0           1           0           0          -1           0
           1           0           0          -1           0           0
           1           1           0          -1          -1           0
           1          -1           0          -1           1           0
           1           2           0          -1          -2           0
           2           1           0          -2          -1           0
           0           2           0           0          -2           0
           2           0           0          -2           0           0
           2           2           0          -2          -2           0
           2          -1           0          -2           1           0
           1          -2           0          -1           2           0
           2           3           0          -2          -3           0
           1           3           0          -1          -3           0
           3           2           0          -3          -2           0
           3           1           0          -3          -1           0
           0           3           0           0          -3           0
           3           0           0          -3           0           0
           2          -2           0          -2           2           0
           1          -3           0          -1           3           0
           3           3           0          -3          -3           0
           3          -1           0          -3           1           0
           2           4           0          -2          -4           0
           4           2           0          -4          -2           0
           1           4           0          -1          -4           0
           4           3           0          -4          -3           0
           4           1           0          -4          -1           0
           3           4           0          -3          -4           0
           0           4           0           0          -4           0
           4           0           0          -4           0           0
           2          -3           0          -2           3           0
           3          -2           0          -3           2           0
           1          -4           0          -1           4           0
           4           4           0          -4          -4           0
           4          -1           0          -4           1           0
           2           5           0          -2          -5           0
           3           5           0          -3          -5           0
           1           5           0          -1          -5           0
           3          -3           0          -3           3           0
           5           3           0          -5          -3           0
           5           2           0          -5          -2           0
           5           1           0          -5          -1           0
           4           5           0          -4          -5           0
           0           5           0           0          -5           0
           4          -2           0          -4           2           0
           2          -4           0          -2           4           0
           5           4           0          -5          -4           0
           5           0           0          -5           0           0
           1          -5           0          -1           5           0
           5           5           0          -5          -5           0
           5          -1           0          -5           1           0
           3           6           0          -3          -6           0
           2           6           0          -2          -6           0
           1           6           0          -1          -6           0
           3          -4           0          -3           4           0
           4           6           0          -4          -6           0
           4          -3           0          -4           3           0
           6           3           0          -6          -3           0
           6           4           0          -6          -4           0
           6           2           0          -6          -2           0
           6           1           0          -6          -1           0
           0           6           0           0          -6           0
           2          -5           0          -2           5           0
           5           6           0          -5          -6           0
           6           5           0          -6          -5           0
           6           0           0          -6           0           0
           5          -2           0          -5           2           0
           1          -6           0          -1           6           0
           6           6           0          -6          -6           0
           6          -1           0          -6           1           0
           3           7           0          -3          -7           0
           4           7           0          -4          -7           0
           2           7           0          -2          -7           0
           4          -4           0          -4           4           0
           7           4           0          -7          -4           0
           7           3           0          -7          -3           0
           7           2           0          -7          -2           0
           1           7           0          -1          -7           0
           3          -5           0          -3           5           0
           5           7           0          -5          -7           0
           5          -3           0          -5           3           0
           7           5           0          -7          -5           0
           7           1           0          -7          -1           0
           0           7           0           0          -7           0
           2          -6           0          -2           6           0
           6           7           0          -6          -7           0
           6          -2           0          -6           2           0
           7           6           0          -7          -6           0
           7           0           0          -7           0           0
           1          -7           0          -1           7           0
           7           7           0          -7          -7           0
           7          -1           0          -7           1           0
           4           8           0          -4          -8           0
           3           8           0          -3          -8           0
           5           8           0          -5          -8           0
           2           8           0          -2          -8           0
           4          -5           0          -4           5           0
           5          -4           0          -5           4           0
           8           4           0          -8          -4           0
           8           5           0          -8          -5           0
           8           3           0          -8          -3           0
           8           2           0          -8          -2           0
           1           8           0          -1          -8           0
           3          -6           0          -3           6           0
           6           8           0          -6          -8           0
           6          -3           0          -6           3           0
           8           6           0          -8          -6           0
           8           1           0          -8          -1           0
           0           8           0           0          -8           0
           2          -7           0          -2           7           0
           7           8           0          -7          -8           0
           7          -2           0          -7           2           0
           8           7           0          -8          -7           0
           8           0           0          -8           0           0
           5           9           0          -5          -9           0
           4           9           0          -4          -9           0
           3           9           0          -3          -9           0
           5          -5           0          -5           5           0
           9           5           0          -9          -5           0
           9           4           0          -9          -4           0
           9           3           0          -9          -3           0
           2           9           0          -2          -9           0
           1          -8           0          -1           8           0
           4          -6           0          -4           6           0
           6           9           0          -6          -9           0
           6          -4           0          -6           4           0
           8           8           0          -8          -8           0
           8          -1           0          -8           1           0
           9           6           0          -9          -6           0
           9           2           0          -9          -2           0
           1           9           0          -1          -9           0
           3          -7           0          -3           7           0
           7           9           0          -7          -9           0
           7          -3           0          -7           3           0
           9           7           0          -9          -7           0
           9           1           0          -9          -1           0
           0           9           0           0          -9           0
           2          -8           0          -2           8           0
           8           9           0          -8          -9           0
           8          -2           0          -8           2           0
           9           8           0          -9          -8           0
           9           0           0          -9           0           0
           5          10           0          -5         -10           0
           4          10           0          -4         -10           0
           3          10           0          -3         -10           0
           5          -6           0          -5           6           0
           6          10           0          -6         -10           0
           6          -5           0          -6           5           0
          10           5           0         -10          -5           0
          10           6           0         -10          -6           0
          10           4           0         -10          -4           0
          10           3           0         -10          -3           0
           2          10           0          -2         -10           0
           4          -7           0          -4           7           0
           7          10           0          -7         -10           0
           7          -4           0          -7           4           0
           1          -9           0          -1           9           0
          10           7           0         -10          -7           0
          10           2           0         -10          -2           0
           9           9           0          -9          -9           0
           9          -1           0          -9           1           0
           1          10           0          -1         -10           0
           3          -8           0          -3           8           0
           8          10           0          -8         -10           0
           8          -3           0          -8           3           0
          10           8           0         -10          -8           0
          10           1           0         -10          -1           0
           0          10           0           0         -10           0
           2          -9           0          -2           9           0
           9          10           0          -9         -10           0
           9          -2           0          -9           2           0
          10           9           0         -10          -9           0
          10           0           0         -10           0           0
           6          11           0          -6         -11           0
           5          11           0          -5         -11           0
           4          11           0          -4         -11           0
           6          -6           0          -6           6           0
           3          11           0          -3         -11           0
           5          -7           0          -5           7           0
          11           6           0         -11          -6           0
          11           5           0         -11          -5           0
          11           4           0         -11          -4           0
           7          11           0          -7         -11           0
           7          -5           0          -7           5           0
          11           7           0         -11          -7           0
          11           3           0         -11          -3           0
           2          11           0          -2         -11           0
           4          -8           0          -4           8           0
           8          11           0          -8         -11           0
           8          -4           0          -8           4           0
          11           8           0         -11          -8           0
          11           2           0         -11          -2           0
           1         -10           0          -1          10           0
          10          10           0         -10         -10           0
          10          -1           0         -10           1           0
           1          11           0          -1         -11           0
           3          -9           0          -3           9           0
           9          11           0          -9         -11           0
           9          -3           0          -9           3           0
          11           9           0         -11          -9           0
          11           1           0         -11          -1           0
           0          11           0           0         -11           0
           2         -10           0          -2          10           0
           6          12           0          -6         -12           0
           5          12           0          -5         -12           0
           7          12           0          -7         -12           0
           4          12           0          -4         -12           0
           6          -7           0          -6           7           0
           7          -6           0          -7           6           0
          10          11           0         -10         -11           0
          10          -2           0         -10           2           0
          11          10           0         -11         -10           0
          11           0           0         -11           0           0
          12           6           0         -12          -6           0
          12           7           0         -12          -7           0
          12           5           0         -12          -5           0
          12           4           0         -12          -4           0
           3          12           0          -3         -12           0
           5          -8           0          -5           8           0
           8          12           0          -8         -12           0
           8          -5           0          -8           5           0
          12           8           0         -12          -8           0
          12           3           0         -12          -3           0
           2          12           0          -2         -12           0
           4          -9           0          -4           9           0
           9          12           0          -9         -12           0
           9          -4           0          -9           4           0
          12           9           0         -12          -9           0
          12           2           0         -12          -2           0
           1         -11           0          -1          11           0
          11          11           0         -11         -11           0
          11          -1           0         -11           1           0
           1          12           0          -1         -12           0
           3         -10           0          -3          10           0
          10          12           0         -10         -12           0
          10          -3           0         -10           3           0
          12          10           0         -12         -10           0
          12           1           0         -12          -1           0
           6          13           0          -6         -13           0
           7          13           0          -7         -13           0
           5          13           0          -5         -13           0
           7          -7           0          -7           7           0
           6          -8           0          -6           8           0
           4          13           0          -4         -13           0
           8          13           0          -8         -13           0
           8          -6           0          -8           6           0
          13           6           0         -13          -6           0
          13           7           0         -13          -7           0
          13           5           0         -13          -5           0
           0          12           0           0         -12           0
           2         -11           0          -2          11           0
          13           8           0         -13          -8           0
          13           4           0         -13          -4           0
           3          13           0          -3         -13           0
           5          -9           0          -5           9           0
          11          12           0         -11         -12           0
          11          -2           0         -11           2           0
          12           0           0         -12           0           0
           9          13           0          -9         -13           0
          12          11           0         -12         -11           0