b3lyp/6-311++G** opted                                                  
SP        RHF                                                         6-311++G(d,p)       
Number of atoms                            I                2
Info1-9                                    I   N=           9
          10           9           0           0           0         110
           1           1           2
Charge                                     I                0
Multiplicity                               I                1
Number of electrons                        I                2
Number of alpha electrons                  I                1
Number of beta electrons                   I                1
Number of basis functions                  I               14
Number of independent functions            I               14
Number of point charges in /Mol/           I                0
Number of translation vectors              I                0
Atomic numbers                             I   N=           2
           1           1
Nuclear charges                            R   N=           2
  1.00000000E+00  1.00000000E+00
Current cartesian coordinates              R   N=           6
  0.00000000E+00  0.00000000E+00  7.03121741E-01  8.61047351E-17  0.00000000E+00
 -7.03121741E-01
Force Field                                I                0
Int Atom Types                             I   N=           2
           0           0
MM charges                                 R   N=           2
  0.00000000E+00  0.00000000E+00
Integer atomic weights                     I   N=           2
           1           1
Real atomic weights                        R   N=           2
  1.00782504E+00  1.00782504E+00
Atom fragment info                         I   N=           2
           0           0
Atom residue num                           I   N=           2
           0           0
Nuclear spins                              I   N=           2
           1           1
Nuclear ZEff                               R   N=           2
 -1.00000000E+00 -1.00000000E+00
Nuclear QMom                               R   N=           2
  0.00000000E+00  0.00000000E+00
Nuclear GFac                               R   N=           2
  2.79284600E+00  2.79284600E+00
MicOpt                                     I   N=           2
          -1          -1
Number of contracted shells                I               10
Number of primitive shells                 I               14
Pure/Cartesian d shells                    I                0
Pure/Cartesian f shells                    I                0
Highest angular momentum                   I                1
Largest degree of contraction              I                3
Shell types                                I   N=          10
           0           0           0           0           1           0
           0           0           0           1
Number of primitives per shell             I   N=          10
           3           1           1           1           1           3
           1           1           1           1
Shell to atom map                          I   N=          10
           1           1           1           1           1           2
           2           2           2           2
Primitive exponents                        R   N=          14
  3.38650000E+01  5.09479000E+00  1.15879000E+00  3.25840000E-01  1.02741000E-01
  3.60000000E-02  7.50000000E-01  3.38650000E+01  5.09479000E+00  1.15879000E+00
  3.25840000E-01  1.02741000E-01  3.60000000E-02  7.50000000E-01
Contraction coefficients                   R   N=          14
  2.54938145E-02  1.90373109E-01  8.52161486E-01  1.00000000E+00  1.00000000E+00
  1.00000000E+00  1.00000000E+00  2.54938145E-02  1.90373109E-01  8.52161486E-01
  1.00000000E+00  1.00000000E+00  1.00000000E+00  1.00000000E+00
Coordinates of each shell                  R   N=          30
  0.00000000E+00  0.00000000E+00  7.03121741E-01  0.00000000E+00  0.00000000E+00
  7.03121741E-01  0.00000000E+00  0.00000000E+00  7.03121741E-01  0.00000000E+00
  0.00000000E+00  7.03121741E-01  0.00000000E+00  0.00000000E+00  7.03121741E-01
  8.61047351E-17  0.00000000E+00 -7.03121741E-01  8.61047351E-17  0.00000000E+00
 -7.03121741E-01  8.61047351E-17  0.00000000E+00 -7.03121741E-01  8.61047351E-17
  0.00000000E+00 -7.03121741E-01  8.61047351E-17  0.00000000E+00 -7.03121741E-01
Constraint Structure                       R   N=           6
  0.00000000E+00  0.00000000E+00  7.03121741E-01  8.61047351E-17  0.00000000E+00
 -7.03121741E-01
Num ILSW                                   I              100
ILSW                                       I   N=         100
           0           0           0           0           2           0
           0           0           0           0           0          -1
           0           0           0           0           0           0
           0           0           1           0           0           0
           1           0           0           0           0           0
           0           0      100000           0          -1           0
           0           0           0           0           0           0
           0           0           0           1           0           0
           0           0           1           0           0           0
           0           0           4          40           0           0
           0           0           0           0           0           0
           0           0           0           0           0           0
           0           0           0           0           0           0
           0           0           0           0           0           0
           0           0           0           0           0           0
           0           0           0           0           0           0
           0           0           0           0
Num RLSW                                   I               40
RLSW                                       R   N=          40
  1.00000000E+00  1.00000000E+00  1.00000000E+00  1.00000000E+00  1.00000000E+00
  0.00000000E+00  0.00000000E+00  1.00000000E+00  0.00000000E+00  0.00000000E+00
  0.00000000E+00  0.00000000E+00  1.00000000E+00  0.00000000E+00  0.00000000E+00
  0.00000000E+00  0.00000000E+00  1.00000000E+00  0.00000000E+00  0.00000000E+00
  0.00000000E+00  0.00000000E+00  1.00000000E+00  0.00000000E+00  0.00000000E+00
  0.00000000E+00  0.00000000E+00  1.00000000E+00  0.00000000E+00  0.00000000E+00
  0.00000000E+00  0.00000000E+00  1.00000000E+00  0.00000000E+00  0.00000000E+00
  0.00000000E+00  0.00000000E+00  0.00000000E+00  1.00000000E+00  1.00000000E+00
MxBond                                     I                1
NBond                                      I   N=           2
           1           1
IBond                                      I   N=           2
           2           1
RBond                                      R   N=           2
  1.00000000E+00  1.00000000E+00
Virial Ratio                               R      2.011787865305970E+00
SCF Energy                                 R     -1.132453310879908E+00
Total Energy                               R     -1.132453310879908E+00
RMS Density                                R      2.486332522966183E-09
External E-field                           R   N=          35
  0.00000000E+00  0.00000000E+00  0.00000000E+00  0.00000000E+00  0.00000000E+00
  0.00000000E+00  0.00000000E+00  0.00000000E+00  0.00000000E+00  0.00000000E+00
  0.00000000E+00  0.00000000E+00  0.00000000E+00  0.00000000E+00  0.00000000E+00
  0.00000000E+00  0.00000000E+00  0.00000000E+00  0.00000000E+00  0.00000000E+00
  0.00000000E+00  0.00000000E+00  0.00000000E+00  0.00000000E+00  0.00000000E+00
  0.00000000E+00  0.00000000E+00  0.00000000E+00  0.00000000E+00  0.00000000E+00
  0.00000000E+00  0.00000000E+00  0.00000000E+00  0.00000000E+00  0.00000000E+00
IOpCl                                      I                0
IROHF                                      I                0
Alpha Orbital Energies                     R   N=          14
 -5.93377111E-01  7.12518410E-02  7.32767306E-02  2.40850462E-01  4.55829791E-01
  7.30714594E-01  1.33215905E+00  1.33215905E+00  1.87570535E+00  2.09580553E+00
  2.09580553E+00  2.31237612E+00  2.82077638E+00  3.66277011E+00
Alpha MO coefficients                      R   N=         196
  1.85386724E-01  2.86475114E-01  1.38288628E-01 -3.89583334E-03  0.00000000E+00
  0.00000000E+00 -2.29149565E-02  1.85386724E-01  2.86475114E-01  1.38288628E-01
 -3.89583334E-03  0.00000000E+00  0.00000000E+00  2.29149565E-02  1.47365609E-02
  1.76486541E-01 -5.45652314E-01  4.27211853E+00  0.00000000E+00  0.00000000E+00
 -1.10341734E-02 -1.47365609E-02 -1.76486541E-01  5.45652314E-01 -4.27211853E+00
  0.00000000E+00  0.00000000E+00 -1.10341734E-02 -5.29682797E-02  2.90878301E-02
 -5.47467012E-01  8.43670533E-01  0.00000000E+00  0.00000000E+00  1.16393269E-02
 -5.29682797E-02  2.90878301E-02 -5.47467012E-01  8.43670533E-01  0.00000000E+00
  0.00000000E+00 -1.16393269E-02 -8.55268457E-02  1.70927629E-01 -3.32594439E+00
  3.69140333E+00  0.00000000E+00  0.00000000E+00 -7.33464466E-02  8.55268457E-02
 -1.70927629E-01  3.32594439E+00 -3.69140333E+00  0.00000000E+00  0.00000000E+00
 -7.33464466E-02 -5.16555364E-02 -8.91376635E-01  1.49623551E+00 -6.67096242E-01
  0.00000000E+00  0.00000000E+00  2.87072982E-03 -5.16555364E-02 -8.91376635E-01
  1.49623551E+00 -6.67096242E-01  0.00000000E+00  0.00000000E+00 -2.87072982E-03
 -1.00742365E-01 -2.17665170E+00  3.67248588E+00 -2.38012339E+00  0.00000000E+00
  0.00000000E+00  1.53841003E-01  1.00742365E-01  2.17665170E+00 -3.67248588E+00
  2.38012339E+00  0.00000000E+00  0.00000000E+00  1.53841003E-01  0.00000000E+00
  0.00000000E+00  0.00000000E+00  0.00000000E+00  0.00000000E+00  5.81953235E-01
  0.00000000E+00  0.00000000E+00  0.00000000E+00  0.00000000E+00  0.00000000E+00
  0.00000000E+00  5.81953235E-01  0.00000000E+00  0.00000000E+00  0.00000000E+00
  0.00000000E+00  0.00000000E+00  5.81953235E-01  0.00000000E+00  0.00000000E+00
  0.00000000E+00  0.00000000E+00  0.00000000E+00  0.00000000E+00  5.81953235E-01
  0.00000000E+00  0.00000000E+00 -2.56441132E-01  7.94697291E-01 -6.11194197E-01
  2.01166521E-01  0.00000000E+00  0.00000000E+00  6.33161406E-01 -2.56441132E-01
  7.94697291E-01 -6.11194197E-01  2.01166521E-01  0.00000000E+00  0.00000000E+00
 -6.33161406E-01  0.00000000E+00  0.00000000E+00  0.00000000E+00  0.00000000E+00
  9.77171506E-01  0.00000000E+00  0.00000000E+00  0.00000000E+00  0.00000000E+00
  0.00000000E+00  0.00000000E+00 -9.77171506E-01  0.00000000E+00  0.00000000E+00
  0.00000000E+00  0.00000000E+00  0.00000000E+00  0.00000000E+00  0.00000000E+00
  9.77171506E-01  0.00000000E+00  0.00000000E+00  0.00000000E+00  0.00000000E+00
  0.00000000E+00  0.00000000E+00 -9.77171506E-01  0.00000000E+00 -5.89605904E-01
  3.83926933E+00 -2.57694128E+00  1.38939366E+00  0.00000000E+00  0.00000000E+00
 -1.47867458E+00  5.89605904E-01 -3.83926933E+00  2.57694128E+00 -1.38939366E+00
  0.00000000E+00  0.00000000E+00 -1.47867458E+00 -1.14691337E+00  1.21912193E+00
 -7.07721160E-01  2.38712399E-01  0.00000000E+00  0.00000000E+00 -3.44749114E-01
 -1.14691337E+00  1.21912193E+00 -7.07721160E-01  2.38712399E-01  0.00000000E+00
  0.00000000E+00  3.44749114E-01 -1.10508161E+00 -1.64712041E+00  2.38037828E-01
 -2.14191077E-02  0.00000000E+00  0.00000000E+00  1.85405326E+00  1.10508161E+00
  1.64712041E+00 -2.38037828E-01  2.14191077E-02  0.00000000E+00  0.00000000E+00
  1.85405326E+00
Total SCF Density                          R   N=         105
  6.87364750E-02  1.06217366E-01  1.64135982E-01  5.12737515E-02  7.92325011E-02
  3.82474894E-02 -1.44447156E-03 -2.23211860E-03 -1.07749890E-03  3.03550348E-05
 -1.30057135E-19 -2.00975193E-19 -9.70157002E-20  2.73310253E-21  1.96866173E-36
 -1.30057135E-19 -2.00975193E-19 -9.70157002E-20  2.73310253E-21  1.20541783E-52
  1.96866173E-36 -8.49625744E-03 -1.31291296E-02 -6.33775580E-03  1.78545703E-04
  1.60758739E-20  1.60758739E-20  1.05019046E-03  6.87364750E-02  1.06217366E-01
  5.12737515E-02 -1.44447156E-03 -1.30057135E-19 -1.30057135E-19 -8.49625744E-03
  6.87364750E-02  1.06217366E-01  1.64135982E-01  7.92325011E-02 -2.23211860E-03
 -2.00975193E-19 -2.00975193E-19 -1.31291296E-02  1.06217366E-01  1.64135982E-01
  5.12737515E-02  7.92325011E-02  3.82474894E-02 -1.07749890E-03 -9.70157002E-20
 -9.70157002E-20 -6.33775580E-03  5.12737515E-02  7.92325011E-02  3.82474894E-02
 -1.44447156E-03 -2.23211860E-03 -1.07749890E-03  3.03550348E-05  2.73310253E-21
  2.73310253E-21  1.78545703E-04 -1.44447156E-03 -2.23211860E-03 -1.07749890E-03
  3.03550348E-05  1.30057135E-19  2.00975193E-19  9.70157002E-20 -2.73310253E-21
 -1.96866173E-36 -1.20541783E-52 -1.60758739E-20  1.30057135E-19  2.00975193E-19
  9.70157002E-20 -2.73310253E-21  1.96866173E-36  1.30057135E-19  2.00975193E-19
  9.70157002E-20 -2.73310253E-21 -1.20541783E-52 -1.96866173E-36 -1.60758739E-20
  1.30057135E-19  2.00975193E-19  9.70157002E-20 -2.73310253E-21  1.20541783E-52
  1.96866173E-36  8.49625744E-03  1.31291296E-02  6.33775580E-03 -1.78545703E-04
 -1.60758739E-20 -1.60758739E-20 -1.05019046E-03  8.49625744E-03  1.31291296E-02
  6.33775580E-03 -1.78545703E-04  1.60758739E-20  1.60758739E-20  1.05019046E-03
QEq coupling tensors                       R   N=          12
  1.77582780E-01  0.00000000E+00  1.77582780E-01  3.31603084E-17  0.00000000E+00
 -3.55165559E-01  1.77582780E-01  0.00000000E+00  1.77582780E-01  2.11077315E-17
  0.00000000E+00 -3.55165559E-01
Mulliken Charges                           R   N=           2
 -1.11022302E-16 -1.11022302E-16
Optimization MaxStp                        I              100
Optimization Job offset                    I                0
Optimization Num results per geometry      I                2
Optimization Num geometry variables        I                6
Opt point       1 Results for each geome   R   N=           8
 -1.16031772E+00  0.00000000E+00 -1.17933653E+00  0.00000000E+00 -1.17957062E+00
  0.00000000E+00 -1.17957153E+00  0.00000000E+00
Opt point       1 Geometries               R   N=          24
  0.00000000E+00  0.00000000E+00  5.66917840E-01  6.94251189E-17  0.00000000E+00
 -5.66917840E-01  0.00000000E+00  0.00000000E+00  6.85702893E-01  8.39716119E-17
  0.00000000E+00 -6.85702893E-01  0.00000000E+00  0.00000000E+00  7.04232173E-01
  8.62407194E-17  0.00000000E+00 -7.04232173E-01  0.00000000E+00  0.00000000E+00
  7.03121174E-01  8.61046657E-17  0.00000000E+00 -7.03121174E-01
Opt point       1 Gradient at each geome   R   N=          24
 -6.51269557E-18  9.55243669E-18 -1.66908663E-01  6.51269557E-18 -9.55243669E-18
  1.66908663E-01 -1.65060154E-17  9.14504298E-18 -1.37609652E-02  1.65060154E-17
 -9.14504298E-18  1.37609652E-02 -1.74351262E-17  9.07230320E-18  8.23567341E-04
  1.74351262E-17 -9.07230320E-18 -8.23567341E-04 -1.73828612E-17  9.07673912E-18
 -4.53141089E-07  1.73828612E-17 -9.07673912E-18  4.53141089E-07
Optimization Number of geometries          I   N=           1
           4
ONIOM Charges                              I   N=          16
           0           0           0           0           0           0
           0           0           0           0           0           0
           0           0           0           0
ONIOM Multiplicities                       I   N=          16
           1           0           0           0           0           0
           0           0           0           0           0           0
           0           0           0           0
Atom Layers                                I   N=           2
           1           1
Atom Modifiers                             I   N=           2
           0           0
Force Field                                I                0
Int Atom Modified Types                    I   N=           2
           0           0
Link Atoms                                 I   N=           2
           0           0
Atom Modified MM Charges                   R   N=           2
  0.00000000E+00  0.00000000E+00
Link Distances                             R   N=           8
  0.00000000E+00  0.00000000E+00  0.00000000E+00  0.00000000E+00  0.00000000E+00
  0.00000000E+00  0.00000000E+00  0.00000000E+00
Cartesian Gradient                         R   N=           6
  0.00000000E+00  0.00000000E+00  0.00000000E+00  0.00000000E+00  0.00000000E+00
  0.00000000E+00
Dipole Moment                              R   N=           3
  1.23259516E-32  1.20370622E-35 -6.93889390E-18
Quadrupole Moment                          R   N=           6
 -1.47034085E-01 -1.47034085E-01  2.94068170E-01 -5.29411396E-35 -2.27418355E-17
  8.53399131E-19
