 CCSD/cc-pVTZ opted                                      
GAUSSIAN             28 MOL ORBITALS     34 PRIMITIVES        2 NUCLEI
  H    1    (CENTRE  1)   0.00000000  0.00000000  0.70160240  CHARGE =  1.0
  H    2    (CENTRE  2)   0.00000000  0.00000000 -0.70160240  CHARGE =  1.0
CENTRE ASSIGNMENTS    1  1  1  1  1  1  1  1  1  1  1  1  1  1  1  1  1  2  2  2
CENTRE ASSIGNMENTS    2  2  2  2  2  2  2  2  2  2  2  2  2  2
TYPE ASSIGNMENTS      1  1  1  1  1  2  3  4  2  3  4  5  6  7  8  9 10  1  1  1
TYPE ASSIGNMENTS      1  1  2  3  4  2  3  4  5  6  7  8  9 10
EXPONENTS  0.3387000D+02 0.5095000D+01 0.1159000D+01 0.3258000D+00 0.1027000D+00
EXPONENTS  0.1407000D+01 0.1407000D+01 0.1407000D+01 0.3880000D+00 0.3880000D+00
EXPONENTS  0.3880000D+00 0.1057000D+01 0.1057000D+01 0.1057000D+01 0.1057000D+01
EXPONENTS  0.1057000D+01 0.1057000D+01 0.3387000D+02 0.5095000D+01 0.1159000D+01
EXPONENTS  0.3258000D+00 0.1027000D+00 0.1407000D+01 0.1407000D+01 0.1407000D+01
EXPONENTS  0.3880000D+00 0.3880000D+00 0.3880000D+00 0.1057000D+01 0.1057000D+01
EXPONENTS  0.1057000D+01 0.1057000D+01 0.1057000D+01 0.1057000D+01
MO    1     MO 0.0        OCC NO =    1.9643096  ORB. ENERGY =    0.000000
  0.48513550D-01  0.87496186D-01  0.12901307D+00  0.88097860D-01  0.16887255D-01
  0.28855244D-16  0.31071702D-15 -0.25367408D-01 -0.34939883D-16 -0.67633369D-16
 -0.62156830D-02 -0.65025110D-03 -0.65025110D-03  0.13005022D-02  0.12953780D-26
  0.87146051D-16  0.26472673D-15  0.48513550D-01  0.87496186D-01  0.12901307D+00
  0.88097860D-01  0.16887255D-01  0.85471368D-16  0.36718315D-15  0.25367408D-01
  0.47138919D-17 -0.28830471D-16  0.62156830D-02 -0.65025110D-03 -0.65025110D-03
  0.13005022D-02 -0.56922943D-27  0.15900782D-15 -0.19151990D-16
MO    2     MO 0.0        OCC NO =    0.0201103  ORB. ENERGY =    0.000000
  0.93591778D-01  0.16879663D+00  0.24889053D+00  0.19440587D+00  0.11090995D-01
  0.72287230D-16  0.58931233D-16  0.11371558D+00  0.16776680D-16  0.53204992D-16
  0.29919904D-01  0.33323132D-01  0.33323132D-01 -0.66646265D-01  0.88600818D-21
 -0.19764570D-15 -0.35323556D-16 -0.93591778D-01 -0.16879663D+00 -0.24889053D+00
 -0.19440587D+00 -0.11090995D-01 -0.39188679D-16 -0.52245691D-16  0.11371558D+00
 -0.53532958D-16 -0.17080315D-16  0.29919904D-01 -0.33323132D-01 -0.33323132D-01
  0.66646265D-01 -0.63880422D-21 -0.25717655D-15 -0.41924003D-15
MO    3     MO 0.0        OCC NO =    0.0059858  ORB. ENERGY =    0.000000
 -0.10355539D+00 -0.18676641D+00 -0.27538696D+00  0.12918320D-02  0.55888192D-01
  0.23199045D-15  0.32812206D-14  0.32085473D+00  0.43238879D-16 -0.31961823D-15
  0.64201065D-01  0.41623545D-01  0.41623545D-01 -0.83247090D-01 -0.74942976D-19
 -0.56286044D-15  0.78714573D-15 -0.10355539D+00 -0.18676641D+00 -0.27538696D+00
  0.12918320D-02  0.55888192D-01  0.12017361D-15  0.31658763D-14 -0.32085473D+00
  0.41310859D-17 -0.36444556D-15 -0.64201065D-01  0.41623545D-01  0.41623545D-01
 -0.83247090D-01  0.83742522D-19  0.20242270D-15 -0.11572861D-14
MO    4     MO 0.0        OCC NO =    0.0042100  ORB. ENERGY =    0.000000
  0.16900265D-15  0.30480325D-15  0.44943221D-15  0.90175097D-15 -0.14868462D-16
 -0.23397906D-12  0.33658418D+00  0.57088968D-15 -0.12947200D-12  0.18630720D+00
 -0.98264217D-15  0.36230511D-15 -0.81295187D-15  0.45064676D-15 -0.46317858D-17
  0.15852174D-12 -0.22764105D+00 -0.73133719D-16 -0.13189967D-15 -0.19448599D-15
 -0.11414766D-14  0.67978910D-16 -0.23382326D-12  0.33658418D+00 -0.24320601D-14
 -0.12934685D-12  0.18630720D+00 -0.41315498D-15 -0.12581119D-15  0.98370950D-15
 -0.85789831D-15  0.35287157D-16 -0.15786107D-12  0.22764105D+00
MO    5     MO 0.0        OCC NO =    0.0042100  ORB. ENERGY =    0.000000
  0.88351178D-16  0.15934499D-15  0.23495409D-15  0.11398291D-14 -0.35742557D-16
  0.33658418D+00  0.23381891D-12 -0.63001855D-15  0.18630720D+00  0.12942423D-12
 -0.78186437D-15 -0.29948660D-15 -0.27156386D-15  0.57105045D-15 -0.27922737D-16
 -0.22764105D+00 -0.15813810D-12 -0.34495681D-16 -0.62214382D-16 -0.91735070D-16
 -0.11283571D-14  0.75011144D-17  0.33658418D+00  0.23381891D-12 -0.40937996D-15
  0.18630720D+00  0.12942423D-12 -0.71022204D-15  0.24519638D-15  0.23299500D-15
 -0.47819139D-15  0.12201384D-16  0.22764105D+00  0.15813810D-12
MO    6     MO 0.0        OCC NO =    0.0001987  ORB. ENERGY =    0.000000
  0.15930466D+00  0.28731252D+00  0.42364214D+00 -0.21484048D-01 -0.20893724D-01
 -0.23351942D-14 -0.76025527D-13  0.69078666D+00 -0.92737613D-15  0.10290968D-13
  0.22381722D+00  0.10925650D-01  0.10925650D-01 -0.21851300D-01  0.97753987D-18
  0.61299564D-16 -0.11677576D-13  0.15930466D+00  0.28731252D+00  0.42364214D+00
 -0.21484048D-01 -0.20893724D-01  0.26092202D-14 -0.76261765D-13 -0.69078666D+00
  0.91902431D-15  0.10223645D-13 -0.22381722D+00  0.10925650D-01  0.10925650D-01
 -0.21851300D-01 -0.30023661D-16 -0.45091454D-15  0.11678144D-13
MO    7     MO 0.0        OCC NO =    0.0001906  ORB. ENERGY =    0.000000
  0.25422193D+00  0.45849973D+00  0.67605758D+00 -0.33199638D+00 -0.51906734D-01
  0.31773422D-14 -0.40040779D-15 -0.48677659D+00  0.10366176D-14  0.72707665D-16
 -0.13832480D-01 -0.21427268D-02 -0.21427268D-02  0.42854536D-02  0.20165209D-16
 -0.11771202D-14  0.57124985D-15 -0.25422193D+00 -0.45849973D+00 -0.67605758D+00
  0.33199638D+00  0.51906734D-01 -0.31714015D-14 -0.53613769D-15 -0.48677659D+00
 -0.10614855D-14  0.40958007D-16 -0.13832480D-01  0.21427268D-02  0.21427268D-02
 -0.42854536D-02 -0.33532270D-16 -0.79721391D-15 -0.91960591D-15
MO    8     MO 0.0        OCC NO =    0.0001472  ORB. ENERGY =    0.000000
 -0.23708496D-15 -0.42759249D-15 -0.63048488D-15  0.83675396D-15  0.75668314D-16
  0.10709933D+01 -0.11796535D-06  0.36101597D-14  0.31319221D+00 -0.34496788D-07
  0.81272769D-15  0.87284101D-16 -0.28681994D-15  0.19953584D-15  0.85519154D-16
 -0.13130045D+00  0.14462185D-07  0.12334588D-14  0.22245938D-14  0.32801623D-14
 -0.86012413D-15 -0.26436668D-15 -0.10709933D+01  0.11796535D-06 -0.14413908D-14
 -0.31319221D+00  0.34496788D-07 -0.53634306D-15 -0.23059921D-15  0.55796513D-16
  0.17480270D-15  0.23471014D-17 -0.13130045D+00  0.14462186D-07
MO    9     MO 0.0        OCC NO =    0.0001472  ORB. ENERGY =    0.000000
  0.16509216D-15  0.29775052D-15  0.43903296D-15  0.15051478D-14 -0.93255225D-16
  0.11796535D-06  0.10709933D+01 -0.24721244D-14  0.34496788D-07  0.31319221D+00
 -0.79380584D-15 -0.16533674D-15 -0.71767627D-15  0.88301301D-15 -0.10465981D-14
 -0.14462185D-07 -0.13130045D+00 -0.14214995D-15 -0.25637329D-15 -0.37802226D-15
 -0.14896890D-14  0.88283250D-16 -0.11796535D-06 -0.10709933D+01 -0.20155605D-14
 -0.34496788D-07 -0.31319221D+00 -0.90036500D-15  0.65935937D-15  0.60963281D-15
 -0.12689922D-14  0.72797241D-15 -0.14462185D-07 -0.13130045D+00
MO   10     MO 0.0        OCC NO =    0.0001081  ORB. ENERGY =    0.000000
 -0.12006030D+00 -0.21653370D+00 -0.31927881D+00  0.26394715D+00 -0.78946032D-01
 -0.11418843D-14 -0.40073680D-12  0.80930553D+00 -0.27768317D-15  0.59466520D-13
 -0.15521691D+00  0.16740704D+00  0.16740704D+00 -0.33481407D+00  0.41978121D-16
  0.29039072D-14  0.48693902D-13 -0.12006030D+00 -0.21653370D+00 -0.31927881D+00
  0.26394715D+00 -0.78946032D-01  0.15089560D-14 -0.40076166D-12 -0.80930553D+00
  0.21801358D-15  0.59480894D-13  0.15521691D+00  0.16740704D+00  0.16740704D+00
 -0.33481407D+00 -0.10484013D-14  0.29808809D-14 -0.49026629D-13
MO   11     MO 0.0        OCC NO =    0.0000752  ORB. ENERGY =    0.000000
  0.45829629D-13  0.82655623D-13  0.12187567D-12 -0.14188044D-12  0.36984161D-13
 -0.71082378D-10 -0.13216775D+01  0.63353742D-13  0.12501458D-10  0.23244727D+00
 -0.60648281D-13 -0.38507399D-13 -0.49149134D-13  0.87656533D-13  0.69839460D-15
  0.47749418D-10  0.88781753D+00  0.47237187D-13  0.85194213D-13  0.12561882D-12
 -0.12728037D-12  0.36611795D-13 -0.71079809D-10 -0.13216775D+01 -0.50168305D-13
  0.12501019D-10  0.23244727D+00  0.70170846D-13 -0.52957813D-13 -0.43257854D-13
  0.96215668D-13  0.50811238D-15 -0.47745948D-10 -0.88781753D+00
MO   12     MO 0.0        OCC NO =    0.0000752  ORB. ENERGY =    0.000000
 -0.28234213D-16 -0.50921565D-16 -0.75083818D-16  0.92075318D-16  0.20973207D-17
 -0.13216775D+01  0.71081051D-10  0.22859657D-15  0.23244727D+00 -0.12501250D-10
 -0.61384554D-16  0.11036347D-15  0.46587182D-16 -0.15695065D-15  0.63776284D-16
  0.88781753D+00 -0.47747654D-10 -0.16396270D-16 -0.29571347D-16 -0.43602934D-16
 -0.29855409D-16 -0.83679916D-18 -0.13216775D+01  0.71081051D-10  0.94298983D-16
  0.23244727D+00 -0.12501250D-10 -0.59266036D-16  0.15610512D-16  0.15824473D-16
 -0.31434985D-16 -0.21396171D-18 -0.88781753D+00  0.47747654D-10
MO   13     MO 0.0        OCC NO =    0.0000572  ORB. ENERGY =    0.000000
  0.11501507D-15  0.20743442D-15  0.30586193D-15  0.10769449D-14 -0.43546520D-16
  0.39530198D-15  0.15340416D-15  0.63577193D-15 -0.31717762D-16 -0.50066631D-16
 -0.10037791D-14  0.75061466D-01 -0.75061466D-01 -0.39391797D-15  0.19034981D+01
 -0.63535970D-15  0.39918371D-15  0.29094289D-16  0.52472748D-16  0.77371036D-16
 -0.12153817D-14  0.35518837D-16 -0.36479955D-15  0.58006089D-15 -0.21457344D-14
  0.26569572D-16 -0.50774244D-16 -0.40613905D-15  0.75061466D-01 -0.75061466D-01
 -0.13260419D-14  0.19034981D+01 -0.57516324D-15  0.55912514D-15
MO   14     MO 0.0        OCC NO =    0.0000572  ORB. ENERGY =    0.000000
  0.15245635D-14  0.27496131D-14  0.40543029D-14 -0.23237363D-14  0.37419004D-15
  0.35822664D-15  0.30177817D-15  0.12962993D-13 -0.14393588D-17  0.11539708D-16
 -0.30491760D-14  0.95174905D+00 -0.95174905D+00 -0.85836876D-14 -0.15012293D+00
 -0.72481571D-15 -0.10055071D-14  0.14633997D-14  0.26393017D-14  0.38916488D-14
 -0.23660576D-14  0.42949613D-15 -0.33219032D-15 -0.21699576D-15 -0.13382584D-13
 -0.29554741D-17 -0.39656247D-16  0.30662875D-14  0.95174905D+00 -0.95174905D+00
 -0.90560107D-14 -0.15012293D+00 -0.67341320D-15 -0.43214837D-15
MO   15     MO 0.0        OCC NO =    0.0000167  ORB. ENERGY =    0.000000
  0.31297111D-01  0.56445629D-01  0.83229047D-01 -0.10039907D+01  0.96939778D-02
  0.33650510D-14  0.59929159D-14  0.16677238D+01 -0.77663445D-15 -0.89490749D-15
  0.52538479D+00 -0.24900659D+00 -0.24900659D+00  0.49801319D+00  0.72097888D-15
 -0.13182082D-14  0.90768799D-14 -0.31297111D-01 -0.56445629D-01 -0.83229047D-01
  0.10039907D+01 -0.96939778D-02 -0.31968773D-14  0.62246200D-14  0.16677238D+01
  0.78497295D-15 -0.17218493D-15  0.52538479D+00  0.24900659D+00  0.24900659D+00
 -0.49801319D+00 -0.86148785D-15 -0.15344744D-14 -0.41081757D-14
MO   16     MO 0.0        OCC NO =    0.0000140  ORB. ENERGY =    0.000000
 -0.22643201D+00 -0.40837945D+00 -0.60215526D+00  0.39196339D+00 -0.84657509D-01
  0.10512728D-13  0.14335913D-10 -0.80876474D+00 -0.25265678D-15 -0.10779168D-11
  0.22719676D+00 -0.37482077D+00 -0.37482077D+00  0.74964154D+00 -0.76821810D-15
 -0.16596983D-13  0.19634506D-10 -0.22643201D+00 -0.40837945D+00 -0.60215526D+00
  0.39196339D+00 -0.84657509D-01 -0.10428524D-13  0.14336578D-10  0.80876474D+00
  0.24850576D-15 -0.10778475D-11 -0.22719676D+00 -0.37482077D+00 -0.37482077D+00
  0.74964154D+00  0.83771843D-15 -0.16767363D-13 -0.19633566D-10
MO   17     MO 0.0        OCC NO =    0.0000128  ORB. ENERGY =    0.000000
 -0.30143723D-16 -0.54365446D-16 -0.80161818D-16 -0.98697846D-16 -0.68371584D-17
  0.13650085D+01 -0.77358606D-10  0.55911456D-16 -0.10508522D+00  0.59554590D-11
  0.42792808D-17  0.14197091D-15  0.89863263D-17 -0.15095724D-15  0.13296586D-15
  0.18199148D+01 -0.10313939D-09  0.30411579D-17  0.54848535D-17  0.80874132D-17
  0.71352433D-16  0.17215117D-16  0.13650085D+01 -0.77358605D-10  0.16341311D-15
 -0.10508522D+00  0.59554591D-11  0.10697122D-15 -0.17093525D-15 -0.63752070D-16
  0.23468732D-15 -0.10720190D-15 -0.18199148D+01  0.10313939D-09
MO   18     MO 0.0        OCC NO =    0.0000128  ORB. ENERGY =    0.000000
  0.25513178D-11  0.46014067D-11  0.67847715D-11 -0.41936531D-11  0.88341976D-12
  0.77360135D-10  0.13650085D+01  0.80146960D-11 -0.59548121D-11 -0.10508522D+00
 -0.20714969D-11  0.46161787D-11  0.46585825D-11 -0.92747613D-11  0.22258050D-14
  0.10313348D-09  0.18199148D+01  0.25564112D-11  0.46105930D-11  0.67983166D-11
 -0.41442679D-11  0.88338515D-12  0.77357118D-10  0.13650085D+01 -0.79887772D-11
 -0.59560999D-11 -0.10508522D+00  0.21057472D-11  0.46384572D-11  0.45959168D-11
 -0.92343741D-11 -0.23765165D-14 -0.10314525D-09 -0.18199148D+01
MO   19     MO 0.0        OCC NO =    0.0000117  ORB. ENERGY =    0.000000
 -0.11050893D-14 -0.19930740D-14 -0.29387865D-14 -0.39060764D-14  0.33505865D-15
  0.21846995D+01 -0.50740791D-07  0.20802081D-13 -0.45789152D+00  0.10634770D-07
 -0.36199551D-15 -0.32678612D-13  0.44516405D-13 -0.11837793D-13  0.22833295D-14
 -0.12511235D+01  0.29057998D-07  0.23199828D-14  0.41841845D-14  0.61695776D-14
  0.10739154D-14  0.31238858D-15 -0.21846995D+01  0.50740789D-07  0.12376477D-13
  0.45789152D+00 -0.10634770D-07  0.25046092D-14  0.33689974D-13 -0.43057387D-13
  0.93674136D-14 -0.26968704D-14 -0.12511235D+01  0.29057998D-07
MO   20     MO 0.0        OCC NO =    0.0000117  ORB. ENERGY =    0.000000
 -0.14234762D-15 -0.25672979D-15 -0.37854792D-15 -0.34623072D-14 -0.39410078D-15
  0.50740791D-07  0.21846995D+01 -0.12386149D-14 -0.10634770D-07 -0.45789152D+00
  0.32478634D-14  0.69409822D-14 -0.43967221D-14 -0.25442601D-14 -0.68358866D-14
 -0.29057998D-07 -0.12511235D+01  0.32417524D-15  0.58466340D-15  0.86208583D-15
  0.35976376D-14  0.33766683D-15 -0.50740791D-07 -0.21846995D+01  0.45723382D-15
  0.10634770D-07  0.45789152D+00  0.25075540D-14 -0.60465610D-14  0.54730857D-14
  0.57347535D-15  0.70188689D-14 -0.29057998D-07 -0.12511235D+01
MO   21     MO 0.0        OCC NO =    0.0000100  ORB. ENERGY =    0.000000
  0.15986737D-12  0.28832738D-12  0.42513856D-12  0.18254932D-12  0.71840247D-13
  0.38835489D-13  0.17025682D-13 -0.14856374D-11 -0.28337757D-13 -0.11199252D-15
 -0.11526345D-12  0.13809701D+01 -0.13809701D+01  0.10259019D-11 -0.38059588D-02
  0.90412976D-13  0.25692428D-13 -0.19125144D-12 -0.34492986D-12 -0.50859887D-12
 -0.13179345D-12 -0.82398349D-13 -0.38918559D-13  0.34103379D-13 -0.13732673D-11
  0.28344207D-13 -0.49819604D-14 -0.14322599D-12 -0.13809701D+01  0.13809701D+01
 -0.91203147D-12  0.38059588D-02  0.90594854D-13 -0.24389802D-13
MO   22     MO 0.0        OCC NO =    0.0000100  ORB. ENERGY =    0.000000
 -0.31529847D-14 -0.56865377D-14 -0.83847965D-14 -0.45012003D-14 -0.10721878D-14
 -0.18435002D-14  0.22368942D-14  0.28657059D-13  0.45026157D-15 -0.24454441D-14
  0.25390081D-14  0.19029794D-02 -0.19029794D-02 -0.12501136D-13  0.27619403D+01
  0.48807606D-15  0.62689647D-14  0.24252533D-14  0.43740443D-14  0.64495258D-14
  0.49743007D-14  0.10098761D-14  0.17602009D-14 -0.44949533D-14  0.26972405D-13
 -0.44379377D-15  0.26328157D-14  0.34698832D-14 -0.19029794D-02  0.19029794D-02
  0.17314271D-13 -0.27619403D+01  0.67045605D-15  0.94773660D-14
MO   23     MO 0.0        OCC NO =    0.0000091  ORB. ENERGY =    0.000000
 -0.33311952D+00 -0.60079478D+00 -0.88587155D+00 -0.31290148D+00 -0.14468574D+00
 -0.57776011D-14 -0.54650136D-14  0.33121516D+01  0.52091893D-14  0.62573960D-16
  0.20377960D+00  0.84652175D+00  0.84652175D+00 -0.16930435D+01 -0.25022367D-13
 -0.19141902D-13 -0.58412408D-14  0.33311952D+00  0.60079478D+00  0.88587155D+00
  0.31290148D+00  0.14468574D+00  0.57372884D-14 -0.32950092D-14  0.33121516D+01
 -0.51931241D-14  0.38743192D-15  0.20377960D+00 -0.84652175D+00 -0.84652175D+00
  0.16930435D+01  0.25475340D-13 -0.18783020D-13  0.11449579D-13
MO   24     MO 0.0        OCC NO =    0.0000023  ORB. ENERGY =    0.000000
  0.23011892D+00  0.41502896D+00  0.61195996D+00  0.23904228D-02 -0.24772994D-01
 -0.15124236D-13 -0.91169926D-12 -0.12068224D+01 -0.12459722D-13  0.96572144D-13
  0.57816286D+00  0.10060032D+01  0.10060032D+01 -0.20120063D+01  0.22428775D-14
  0.96400291D-13 -0.11346560D-11  0.23011892D+00  0.41502896D+00  0.61195996D+00
  0.23904228D-02 -0.24772994D-01  0.15259015D-13 -0.94910033D-12  0.12068224D+01
  0.12453198D-13  0.68271068D-13 -0.57816286D+00  0.10060032D+01  0.10060032D+01
 -0.20120063D+01 -0.20476627D-14  0.96405398D-13  0.91148235D-12
MO   25     MO 0.0        OCC NO =    0.0000020  ORB. ENERGY =    0.000000
  0.71632893D-14  0.12919287D-13  0.19049481D-13  0.32460123D-13  0.85655613D-14
  0.83936942D+00 -0.22999773D-01  0.44624953D-14  0.59892582D+00 -0.16411317D-01
 -0.21938005D-13  0.55126886D-13 -0.16697800D-13 -0.38429086D-13 -0.55942279D-15
 -0.48242826D+01  0.13219138D+00  0.34794022D-14  0.62752452D-14  0.92528454D-14
 -0.34013214D-13 -0.92755197D-14 -0.83936942D+00  0.22999773D-01  0.49900983D-13
 -0.59892582D+00  0.16411317D-01 -0.44796646D-13 -0.10873304D-13  0.60895063D-13
 -0.50021759D-13  0.43951707D-15 -0.48242826D+01  0.13219138D+00
MO   26     MO 0.0        OCC NO =    0.0000020  ORB. ENERGY =    0.000000
 -0.38792756D-14 -0.69964333D-14 -0.10316237D-13  0.49135347D-13 -0.25399409D-15
  0.22999773D-01  0.83936942D+00  0.24086548D-13  0.16411317D-01  0.59892582D+00
 -0.46717942D-13 -0.32327510D-13 -0.31302161D-13  0.63629671D-13  0.61654051D-14
 -0.13219138D+00 -0.48242826D+01 -0.66733059D-14 -0.12035582D-13 -0.17746459D-13
 -0.49082905D-13  0.13436968D-14 -0.22999773D-01 -0.83936942D+00 -0.30532834D-13
 -0.16411317D-01 -0.59892582D+00 -0.20481065D-13 -0.13501803D-13 -0.14726190D-13
  0.28227993D-13 -0.59367979D-14 -0.13219138D+00 -0.48242826D+01
MO   27     MO 0.0        OCC NO =    0.0000015  ORB. ENERGY =    0.000000
  0.10122411D+00  0.18256185D+00  0.26918734D+00  0.36896303D+01  0.14479504D+00
 -0.17059808D-13  0.80249021D-15  0.64973386D+00 -0.11536917D-13 -0.59967683D-14
 -0.27653740D+01 -0.52832251D+00 -0.52832251D+00  0.10566450D+01  0.70522499D-15
  0.93782378D-13  0.49373947D-13 -0.10122411D+00 -0.18256185D+00 -0.26918734D+00
 -0.36896303D+01 -0.14479504D+00  0.17073042D-13  0.10632603D-13  0.64973386D+00
  0.11453515D-13  0.51644399D-14 -0.27653740D+01  0.52832251D+00  0.52832251D+00
 -0.10566450D+01 -0.52497387D-15  0.93686609D-13  0.31453210D-13
MO   28     MO 0.0        OCC NO =    0.0000008  ORB. ENERGY =    0.000000
 -0.13592842D+00 -0.24515251D+00 -0.36147723D+00 -0.30034076D+01  0.40783279D+00
 -0.13778931D-13  0.25995531D-14  0.23871871D+01 -0.74502841D-14  0.30435406D-14
  0.15983030D+01  0.87833402D+00  0.87833402D+00 -0.17566680D+01 -0.68092320D-15
  0.65941726D-13 -0.32312789D-13  0.13592842D+00  0.24515251D+00  0.36147723D+00
  0.30034076D+01 -0.40783279D+00  0.13884235D-13 -0.74581258D-14  0.23871871D+01
  0.74966392D-14 -0.30047066D-14  0.15983030D+01 -0.87833402D+00 -0.87833402D+00
  0.17566680D+01  0.14257866D-14  0.66058308D-13 -0.17741619D-13
END DATA
 THE  HF ENERGY =     -1.132943249539 THE VIRIAL(-V/T)=   2.01030664
