m062x/def2TZVP opted                                                    
SP        RB3LYP                                                      Aug-CC-pVTZ         
Number of atoms                            I                4
Info1-9                                    I   N=           9
          12          11           0           0           0         110
           1          18        -502
Charge                                     I                0
Multiplicity                               I                1
Number of electrons                        I               16
Number of alpha electrons                  I                8
Number of beta electrons                   I                8
Number of basis functions                  I              138
Number of independent functions            I              138
Number of point charges in /Mol/           I                0
Number of translation vectors              I                0
Atomic numbers                             I   N=           4
           6           1           1           8
Nuclear charges                            R   N=           4
  6.00000000E+00  1.00000000E+00  1.00000000E+00  8.00000000E+00
Current cartesian coordinates              R   N=          12
  1.82972721E-16 -2.04465730E-48 -9.96089762E-01  7.73492412E-16  1.77418072E+00
 -2.10541758E+00 -2.17267298E-16 -1.77418072E+00 -2.10541758E+00 -2.33916092E-16
  2.61393198E-48  1.27342219E+00
Force Field                                I                0
Int Atom Types                             I   N=           4
           0           0           0           0
MM charges                                 R   N=           4
  0.00000000E+00  0.00000000E+00  0.00000000E+00  0.00000000E+00
Integer atomic weights                     I   N=           4
          12           1           1          16
Real atomic weights                        R   N=           4
  1.20000000E+01  1.00782504E+00  1.00782504E+00  1.59949146E+01
Atom fragment info                         I   N=           4
           0           0           0           0
Atom residue num                           I   N=           4
           0           0           0           0
Nuclear spins                              I   N=           4
           0           1           1           0
Nuclear ZEff                               R   N=           4
 -3.60000000E+00 -1.00000000E+00 -1.00000000E+00 -5.60000000E+00
Nuclear ZNuc                               R   N=           4
  6.00000000E+00  1.00000000E+00  1.00000000E+00  8.00000000E+00
Nuclear QMom                               R   N=           4
  0.00000000E+00  0.00000000E+00  0.00000000E+00  0.00000000E+00
Nuclear GFac                               R   N=           4
  0.00000000E+00  2.79284600E+00  2.79284600E+00  0.00000000E+00
MicOpt                                     I   N=           4
          -1          -1          -1          -1
Number of contracted shells                I               46
Number of primitive shells                 I               76
Pure/Cartesian d shells                    I                0
Pure/Cartesian f shells                    I                0
Highest angular momentum                   I                3
Largest degree of contraction              I                7
Shell types                                I   N=          46
           0           0           0           0           0           1
           1           1           1          -2          -2          -2
          -3          -3           0           0           0           0
           1           1           1          -2          -2           0
           0           0           0           1           1           1
          -2          -2           0           0           0           0
           0           1           1           1           1          -2
          -2          -2          -3          -3
Number of primitives per shell             I   N=          46
           7           6           1           1           1           3
           1           1           1           1           1           1
           1           1           3           1           1           1
           1           1           1           1           1           3
           1           1           1           1           1           1
           1           1           7           6           1           1
           1           3           1           1           1           1
           1           1           1           1
Shell to atom map                          I   N=          46
           1           1           1           1           1           1
           1           1           1           1           1           1
           1           1           2           2           2           2
           2           2           2           2           2           3
           3           3           3           3           3           3
           3           3           4           4           4           4
           4           4           4           4           4           4
           4           4           4           4
Primitive exponents                        R   N=          76
  8.23600000E+03  1.23500000E+03  2.80800000E+02  7.92700000E+01  2.55900000E+01
  8.99700000E+00  3.31900000E+00  2.80800000E+02  7.92700000E+01  2.55900000E+01
  8.99700000E+00  3.31900000E+00  3.64300000E-01  9.05900000E-01  1.28500000E-01
  4.40200000E-02  1.87100000E+01  4.13300000E+00  1.20000000E+00  3.82700000E-01
  1.20900000E-01  3.56900000E-02  1.09700000E+00  3.18000000E-01  1.00000000E-01
  7.61000000E-01  2.68000000E-01  3.38700000E+01  5.09500000E+00  1.15900000E+00
  3.25800000E-01  1.02700000E-01  2.52600000E-02  1.40700000E+00  3.88000000E-01
  1.02000000E-01  1.05700000E+00  2.47000000E-01  3.38700000E+01  5.09500000E+00
  1.15900000E+00  3.25800000E-01  1.02700000E-01  2.52600000E-02  1.40700000E+00
  3.88000000E-01  1.02000000E-01  1.05700000E+00  2.47000000E-01  1.53300000E+04
  2.29900000E+03  5.22400000E+02  1.47300000E+02  4.75500000E+01  1.67600000E+01
  6.20700000E+00  5.22400000E+02  1.47300000E+02  4.75500000E+01  1.67600000E+01
  6.20700000E+00  6.88200000E-01  1.75200000E+00  2.38400000E-01  7.37600000E-02
  3.44600000E+01  7.74900000E+00  2.28000000E+00  7.15600000E-01  2.14000000E-01
  5.97400000E-02  2.31400000E+00  6.45000000E-01  2.14000000E-01  1.42800000E+00
  5.00000000E-01
Contraction coefficients                   R   N=          76
  5.41978320E-04  4.19287382E-03  2.15221621E-02  8.35343220E-02  2.39582846E-01
  4.42852842E-01  3.51799562E-01 -5.94922494E-05 -1.14815831E-03 -1.00191374E-02
 -6.12194923E-02 -1.73269854E-01  1.07291519E+00  1.00000000E+00  1.00000000E+00
  1.00000000E+00  3.94263872E-02  2.44088985E-01  8.15492009E-01  1.00000000E+00
  1.00000000E+00  1.00000000E+00  1.00000000E+00  1.00000000E+00  1.00000000E+00
  1.00000000E+00  1.00000000E+00  2.54948632E-02  1.90362766E-01  8.52162022E-01
  1.00000000E+00  1.00000000E+00  1.00000000E+00  1.00000000E+00  1.00000000E+00
  1.00000000E+00  1.00000000E+00  1.00000000E+00  2.54948632E-02  1.90362766E-01
  8.52162022E-01  1.00000000E+00  1.00000000E+00  1.00000000E+00  1.00000000E+00
  1.00000000E+00  1.00000000E+00  1.00000000E+00  1.00000000E+00  5.19808943E-04
  4.02025621E-03  2.07128267E-02  8.10105536E-02  2.35962985E-01  4.42653446E-01
  3.57064423E-01 -4.42115008E-05 -1.22591041E-03 -1.05517725E-02 -6.74452633E-02
 -1.71198607E-01  1.07329856E+00  1.00000000E+00  1.00000000E+00  1.00000000E+00
  4.11634896E-02  2.57762836E-01  8.02419274E-01  1.00000000E+00  1.00000000E+00
  1.00000000E+00  1.00000000E+00  1.00000000E+00  1.00000000E+00  1.00000000E+00
  1.00000000E+00
Coordinates of each shell                  R   N=         138
  0.00000000E+00 -2.04465730E-48 -9.96089999E-01  0.00000000E+00 -2.04465730E-48
 -9.96089999E-01  0.00000000E+00 -2.04465730E-48 -9.96089999E-01  0.00000000E+00
 -2.04465730E-48 -9.96089999E-01  0.00000000E+00 -2.04465730E-48 -9.96089999E-01
  0.00000000E+00 -2.04465730E-48 -9.96089999E-01  0.00000000E+00 -2.04465730E-48
 -9.96089999E-01  0.00000000E+00 -2.04465730E-48 -9.96089999E-01  0.00000000E+00
 -2.04465730E-48 -9.96089999E-01  0.00000000E+00 -2.04465730E-48 -9.96089999E-01
  0.00000000E+00 -2.04465730E-48 -9.96089999E-01  0.00000000E+00 -2.04465730E-48
 -9.96089999E-01  0.00000000E+00 -2.04465730E-48 -9.96089999E-01  0.00000000E+00
 -2.04465730E-48 -9.96089999E-01  0.00000000E+00  1.77418072E+00 -2.10541782E+00
  0.00000000E+00  1.77418072E+00 -2.10541782E+00  0.00000000E+00  1.77418072E+00
 -2.10541782E+00  0.00000000E+00  1.77418072E+00 -2.10541782E+00  0.00000000E+00
  1.77418072E+00 -2.10541782E+00  0.00000000E+00  1.77418072E+00 -2.10541782E+00
  0.00000000E+00  1.77418072E+00 -2.10541782E+00  0.00000000E+00  1.77418072E+00
 -2.10541782E+00  0.00000000E+00  1.77418072E+00 -2.10541782E+00 -2.17267298E-16
 -1.77418072E+00 -2.10541782E+00 -2.17267298E-16 -1.77418072E+00 -2.10541782E+00
 -2.17267298E-16 -1.77418072E+00 -2.10541782E+00 -2.17267298E-16 -1.77418072E+00
 -2.10541782E+00 -2.17267298E-16 -1.77418072E+00 -2.10541782E+00 -2.17267298E-16
 -1.77418072E+00 -2.10541782E+00 -2.17267298E-16 -1.77418072E+00 -2.10541782E+00
 -2.17267298E-16 -1.77418072E+00 -2.10541782E+00 -2.17267298E-16 -1.77418072E+00
 -2.10541782E+00  0.00000000E+00  2.61393198E-48  1.27342195E+00  0.00000000E+00
  2.61393198E-48  1.27342195E+00  0.00000000E+00  2.61393198E-48  1.27342195E+00
  0.00000000E+00  2.61393198E-48  1.27342195E+00  0.00000000E+00  2.61393198E-48
  1.27342195E+00  0.00000000E+00  2.61393198E-48  1.27342195E+00  0.00000000E+00
  2.61393198E-48  1.27342195E+00  0.00000000E+00  2.61393198E-48  1.27342195E+00
  0.00000000E+00  2.61393198E-48  1.27342195E+00  0.00000000E+00  2.61393198E-48
  1.27342195E+00  0.00000000E+00  2.61393198E-48  1.27342195E+00  0.00000000E+00
  2.61393198E-48  1.27342195E+00  0.00000000E+00  2.61393198E-48  1.27342195E+00
  0.00000000E+00  2.61393198E-48  1.27342195E+00
Constraint Structure                       R   N=          12
  0.00000000E+00 -2.04465730E-48 -9.96089999E-01  0.00000000E+00  1.77418072E+00
 -2.10541782E+00 -2.17267298E-16 -1.77418072E+00 -2.10541782E+00  0.00000000E+00
  2.61393198E-48  1.27342195E+00
Num ILSW                                   I              100
ILSW                                       I   N=         100
           0           0           0           0           2           0
           0           0           0           0         402          -1
           0           0           0           0           0           0
           0           0           0           0           0           0
           1           0           0           0           0           0
           0           0      100000           0          -1           0
           0           0           0           0           0           0
           0           0           0           1           0           0
           0           0           1           0           0           0
           0           0           4          41           0           0
           0           0           5           0           0           0
           0           0           0           4           0           0
           0           0           0           0           0           0
           0           0           0           0           0           0
           0           0           0           0           0           0
           0           0           0           0           0           0
           0           0           0           0
Num RLSW                                   I               41
RLSW                                       R   N=          41
  8.00000000E-01  7.20000000E-01  1.00000000E+00  8.10000000E-01  2.00000000E-01
  0.00000000E+00  0.00000000E+00  1.00000000E+00  0.00000000E+00  0.00000000E+00
  0.00000000E+00  0.00000000E+00  1.00000000E+00  0.00000000E+00  0.00000000E+00
  0.00000000E+00  0.00000000E+00  1.00000000E+00  0.00000000E+00  0.00000000E+00
  0.00000000E+00  0.00000000E+00  1.00000000E+00  0.00000000E+00  0.00000000E+00
  0.00000000E+00  0.00000000E+00  1.00000000E+00  0.00000000E+00  0.00000000E+00
  0.00000000E+00  0.00000000E+00  1.00000000E+00  0.00000000E+00  0.00000000E+00
  0.00000000E+00  0.00000000E+00  0.00000000E+00  1.00000000E+00  1.00000000E+00
  0.00000000E+00
MxBond                                     I                3
NBond                                      I   N=           4
           3           1           1           1
IBond                                      I   N=          12
           2           3           4           1           0           0
           1           0           0           1           0           0
RBond                                      R   N=          12
  1.00000000E+00  1.00000000E+00  2.00000000E+00  1.00000000E+00  0.00000000E+00
  0.00000000E+00  1.00000000E+00  0.00000000E+00  0.00000000E+00  2.00000000E+00
  0.00000000E+00  0.00000000E+00
Virial Ratio                               R      2.006171466472591E+00
SCF Energy                                 R     -1.145521434391948E+02
Total Energy                               R     -1.145521434391948E+02
RMS Density                                R      1.975924023146826E-09
External E-field                           R   N=          35
  0.00000000E+00  0.00000000E+00  0.00000000E+00  0.00000000E+00  0.00000000E+00
  0.00000000E+00  0.00000000E+00  0.00000000E+00  0.00000000E+00  0.00000000E+00
  0.00000000E+00  0.00000000E+00  0.00000000E+00  0.00000000E+00  0.00000000E+00
  0.00000000E+00  0.00000000E+00  0.00000000E+00  0.00000000E+00  0.00000000E+00
  0.00000000E+00  0.00000000E+00  0.00000000E+00  0.00000000E+00  0.00000000E+00
  0.00000000E+00  0.00000000E+00  0.00000000E+00  0.00000000E+00  0.00000000E+00
  0.00000000E+00  0.00000000E+00  0.00000000E+00  0.00000000E+00  0.00000000E+00
IOpCl                                      I                0
IROHF                                      I                0
Alpha Orbital Energies                     R   N=         138
 -1.91563813E+01 -1.02802912E+01 -1.07415919E+00 -6.44404277E-01 -5.06617455E-01
 -4.63831004E-01 -4.13340985E-01 -2.81614078E-01 -6.41501373E-02 -1.05571459E-02
  1.54780297E-02  3.03805319E-02  4.86900319E-02  7.92659931E-02  8.95150466E-02
  1.09835223E-01  1.30031606E-01  1.32572675E-01  1.47108103E-01  1.67221543E-01
  1.76272979E-01  2.07084398E-01  2.31654399E-01  2.65794495E-01  2.67030921E-01
  2.82027366E-01  2.98743068E-01  3.08063019E-01  3.18997390E-01  3.29170554E-01
  3.77943878E-01  3.81549326E-01  4.32176469E-01  4.38062107E-01  5.22903822E-01
  5.37744675E-01  5.59453331E-01  6.47419123E-01  6.69709462E-01  6.78423869E-01
  7.02477970E-01  7.10779159E-01  7.23568846E-01  7.24778660E-01  7.86382145E-01
  7.94645978E-01  8.04251589E-01  8.41468055E-01  8.41741366E-01  8.64991560E-01
  8.74714521E-01  8.88793367E-01  8.90643497E-01  9.30349128E-01  9.42173342E-01
  9.51985727E-01  1.08625568E+00  1.08758619E+00  1.13651893E+00  1.19888139E+00
  1.20601036E+00  1.26548789E+00  1.30080602E+00  1.34038975E+00  1.38047383E+00
  1.38993137E+00  1.43687032E+00  1.50427295E+00  1.51148198E+00  1.60169892E+00
  1.72971044E+00  1.78950360E+00  1.80382074E+00  1.85589183E+00  1.96989979E+00
  2.02790724E+00  2.05714931E+00  2.06160380E+00  2.08900309E+00  2.21136886E+00
  2.21849538E+00  2.29305166E+00  2.32788611E+00  2.41942937E+00  2.51603071E+00
  2.52070241E+00  2.61742664E+00  2.65588709E+00  2.75700733E+00  2.76556501E+00
  2.83199071E+00  2.87095965E+00  3.09517021E+00  3.12466639E+00  3.22847786E+00
  3.23474719E+00  3.32569001E+00  3.34400832E+00  3.36284617E+00  3.56327910E+00
  3.58785210E+00  3.66352362E+00  3.79546696E+00  3.80297023E+00  3.84930349E+00
  3.86202449E+00  3.88820996E+00  4.02557384E+00  4.21888154E+00  4.31971316E+00
  4.37169842E+00  4.41412922E+00  4.61533628E+00  4.65570301E+00  4.75984080E+00
  4.78284707E+00  4.89035261E+00  4.91542449E+00  4.95568320E+00  4.98338405E+00
  5.47924595E+00  5.73550194E+00  5.77381823E+00  6.09532474E+00  6.13348889E+00
  6.18108125E+00  6.44842234E+00  6.48293474E+00  6.62197682E+00  6.65603772E+00
  6.68011918E+00  6.90952266E+00  6.98968648E+00  7.17946230E+00  7.19087474E+00
  7.25551846E+00  1.42629356E+01  1.55033949E+01
Alpha MO coefficients                      R   N=       19044
  1.87386386E-04  2.04583212E-03  1.57529319E-03 -6.08400754E-03 -4.13862573E-05
  0.00000000E+00  0.00000000E+00  5.33815756E-04  0.00000000E+00  0.00000000E+00
  2.60283524E-03  0.00000000E+00  0.00000000E+00 -1.28515310E-03  0.00000000E+00
  0.00000000E+00  6.58528543E-05  4.08092395E-04  0.00000000E+00  0.00000000E+00
  3.84042946E-05  0.00000000E+00 -2.21825620E-03  0.00000000E+00  0.00000000E+00
  5.72887289E-04  0.00000000E+00 -3.15623868E-03  0.00000000E+00  0.00000000E+00
 -1.18504862E-03  0.00000000E+00 -7.68550890E-04  0.00000000E+00  0.00000000E+00
 -3.04426638E-04  0.00000000E+00  0.00000000E+00  0.00000000E+00 -8.88236248E-04
  0.00000000E+00  0.00000000E+00 -8.58352537E-04  0.00000000E+00  0.00000000E+00
  0.00000000E+00  2.63628037E-04  2.49658205E-03 -6.00218620E-04  5.40835377E-06
  0.00000000E+00 -1.60667969E-04  1.59580047E-04  0.00000000E+00 -8.74370181E-04
 -3.10594914E-04  0.00000000E+00 -1.16354722E-03 -1.48481263E-03 -1.66758215E-04
  0.00000000E+00 -5.19516439E-05 -1.75662373E-05  0.00000000E+00 -3.05285779E-04
  0.00000000E+00  2.17371628E-04 -1.71908860E-04  0.00000000E+00  2.63628037E-04
  2.49658205E-03 -6.00218620E-04  5.40835377E-06  0.00000000E+00  1.60667969E-04
  1.59580047E-04  0.00000000E+00  8.74370181E-04 -3.10594914E-04  0.00000000E+00
  1.16354722E-03 -1.48481263E-03 -1.66758215E-04  0.00000000E+00  5.19516439E-05
 -1.75662373E-05  0.00000000E+00 -3.05285779E-04  0.00000000E+00 -2.17371628E-04
 -1.71908860E-04  0.00000000E+00  9.73112811E-01 -1.01214560E-02  5.14349517E-02
  5.64444456E-03  7.63538838E-04  0.00000000E+00  0.00000000E+00 -1.57481000E-03
  0.00000000E+00  0.00000000E+00  1.63451078E-04  0.00000000E+00  0.00000000E+00
  2.96051267E-03  0.00000000E+00  0.00000000E+00  2.32893609E-04  4.09724213E-04
  0.00000000E+00  0.00000000E+00  3.17301689E-06  0.00000000E+00 -9.19789662E-04
  0.00000000E+00  0.00000000E+00  8.49145792E-05  0.00000000E+00 -1.81379452E-03
  0.00000000E+00  0.00000000E+00  4.63145458E-04  0.00000000E+00 -7.36728397E-05
  0.00000000E+00  0.00000000E+00  1.84960846E-05  0.00000000E+00  0.00000000E+00
  0.00000000E+00  7.78527128E-04  0.00000000E+00  0.00000000E+00 -2.42529993E-04
  0.00000000E+00  0.00000000E+00  0.00000000E+00  9.76900814E-01  1.22896531E-02
  5.38698116E-02  3.39051903E-02  8.08565716E-03  0.00000000E+00  0.00000000E+00
  9.73097644E-04  0.00000000E+00  0.00000000E+00  3.99692344E-03  0.00000000E+00
  0.00000000E+00 -5.46647910E-03  0.00000000E+00  0.00000000E+00 -2.22633926E-04
  2.37385819E-03  0.00000000E+00  0.00000000E+00 -1.88719669E-03  0.00000000E+00
 -8.20023698E-04  0.00000000E+00  0.00000000E+00 -1.16011479E-03  0.00000000E+00
 -6.05135869E-03  0.00000000E+00  0.00000000E+00 -3.62148599E-03  0.00000000E+00
  2.20252025E-03  0.00000000E+00  0.00000000E+00  1.43915554E-03  0.00000000E+00
  0.00000000E+00  0.00000000E+00 -4.10563671E-03  0.00000000E+00  0.00000000E+00
 -2.49924482E-03  0.00000000E+00  0.00000000E+00  0.00000000E+00  6.62401429E-04
 -4.68021124E-03 -1.73094471E-02 -1.11378290E-03  0.00000000E+00  7.14417755E-04
 -5.37327085E-04  0.00000000E+00  4.78656064E-03 -2.95724024E-03  0.00000000E+00
  1.90111282E-03 -5.76100137E-03  1.23810848E-04  0.00000000E+00  1.43954206E-03
  1.05261719E-03  0.00000000E+00 -6.62898041E-04  0.00000000E+00  8.23567338E-04
  1.25846133E-03  0.00000000E+00  6.62401429E-04 -4.68021124E-03 -1.73094471E-02
 -1.11378290E-03  0.00000000E+00 -7.14417755E-04 -5.37327085E-04  0.00000000E+00
 -4.78656064E-03 -2.95724024E-03  0.00000000E+00 -1.90111282E-03 -5.76100137E-03
  1.23810848E-04  0.00000000E+00 -1.43954206E-03  1.05261719E-03  0.00000000E+00
 -6.62898041E-04  0.00000000E+00 -8.23567338E-04  1.25846133E-03  0.00000000E+00
  7.86881450E-05  2.18378987E-03  1.01417761E-03 -8.66162774E-03 -3.19794750E-03
  0.00000000E+00  0.00000000E+00 -7.74187939E-04  0.00000000E+00  0.00000000E+00
  3.31790244E-03  0.00000000E+00  0.00000000E+00  1.41281004E-02  0.00000000E+00
  0.00000000E+00  1.16085256E-03  1.88100995E-04  0.00000000E+00  0.00000000E+00
 -1.68029413E-05  0.00000000E+00 -4.21223090E-03  0.00000000E+00  0.00000000E+00
  7.88632927E-05  0.00000000E+00 -4.96817884E-03  0.00000000E+00  0.00000000E+00
  1.29404587E-03  0.00000000E+00  4.28595087E-04  0.00000000E+00  0.00000000E+00
  1.29369402E-04  0.00000000E+00  0.00000000E+00  0.00000000E+00  2.09707676E-03
  0.00000000E+00  0.00000000E+00 -2.40384998E-04  0.00000000E+00  0.00000000E+00
  0.00000000E+00 -1.11545412E-01  2.35480797E-01  6.03576925E-02  1.28425045E-01
  3.22525844E-03  0.00000000E+00  0.00000000E+00  1.11077094E-01  0.00000000E+00
  0.00000000E+00  6.67292546E-02  0.00000000E+00  0.00000000E+00 -2.94710505E-02
  0.00000000E+00  0.00000000E+00 -2.53995241E-03  1.73782914E-02  0.00000000E+00
  0.00000000E+00 -1.96359054E-03  0.00000000E+00  6.34907125E-03  0.00000000E+00
  0.00000000E+00 -1.63336290E-02  0.00000000E+00 -1.64491796E-02  0.00000000E+00
  0.00000000E+00 -8.58378888E-03  0.00000000E+00  8.12704404E-03  0.00000000E+00
  0.00000000E+00  4.20291797E-03  0.00000000E+00  0.00000000E+00  0.00000000E+00
 -1.48840891E-04  0.00000000E+00  0.00000000E+00  3.24243476E-03  0.00000000E+00
  0.00000000E+00  0.00000000E+00  1.48258670E-02 -2.28115831E-02 -5.19433845E-02
 -1.66591971E-03  0.00000000E+00  2.35084108E-04  8.91077447E-04  0.00000000E+00
  1.29917219E-02 -8.85414043E-03  0.00000000E+00  8.05758620E-03 -1.71803030E-02
  1.08429259E-03  0.00000000E+00  6.70402461E-04  8.37757749E-04  0.00000000E+00
 -2.26027611E-03  0.00000000E+00  3.70167626E-03  1.98483296E-03  0.00000000E+00
  1.48258670E-02 -2.28115831E-02 -5.19433845E-02 -1.66591971E-03  0.00000000E+00
 -2.35084108E-04  8.91077447E-04  0.00000000E+00 -1.29917219E-02 -8.85414043E-03
  0.00000000E+00 -8.05758620E-03 -1.71803030E-02  1.08429259E-03  0.00000000E+00
 -6.70402461E-04  8.37757749E-04  0.00000000E+00 -2.26027611E-03  0.00000000E+00
 -3.70167626E-03  1.98483296E-03  0.00000000E+00 -1.90683072E-01  4.33989067E-01
  1.28835364E-01  2.51677216E-01  3.37170442E-02  0.00000000E+00  0.00000000E+00
 -9.58449932E-02  0.00000000E+00  0.00000000E+00 -1.14293735E-01  0.00000000E+00
  0.00000000E+00 -2.74926478E-02  0.00000000E+00  0.00000000E+00 -1.72575383E-03
  7.48344000E-03  0.00000000E+00  0.00000000E+00  6.98886214E-04  0.00000000E+00
  1.96067877E-02  0.00000000E+00  0.00000000E+00  2.33879373E-03  0.00000000E+00
 -3.14082995E-03  0.00000000E+00  0.00000000E+00  4.51372378E-04  0.00000000E+00
 -3.79475359E-03  0.00000000E+00  0.00000000E+00 -1.20864155E-04  0.00000000E+00
  0.00000000E+00  0.00000000E+00 -3.13115917E-03  0.00000000E+00  0.00000000E+00
 -6.92555023E-04  0.00000000E+00  0.00000000E+00  0.00000000E+00 -1.57206003E-01
  3.68319356E-01  9.96346011E-02  2.84290468E-01  1.75554369E-02  0.00000000E+00
  0.00000000E+00 -1.20671502E-01  0.00000000E+00  0.00000000E+00 -1.25170447E-01
  0.00000000E+00  0.00000000E+00 -6.12456244E-02  0.00000000E+00  0.00000000E+00
  1.07409776E-04 -4.12433628E-03  0.00000000E+00  0.00000000E+00 -7.92219332E-03
  0.00000000E+00 -2.18874904E-03  0.00000000E+00  0.00000000E+00 -1.36066114E-02
  0.00000000E+00  7.95748857E-03  0.00000000E+00  0.00000000E+00 -2.28630072E-05
  0.00000000E+00  1.87953714E-03  0.00000000E+00  0.00000000E+00  2.47277319E-03
  0.00000000E+00  0.00000000E+00  0.00000000E+00  4.04336375E-03  0.00000000E+00
  0.00000000E+00  5.46496204E-03  0.00000000E+00  0.00000000E+00  0.00000000E+00
  1.12009293E-01  1.16867239E-01 -5.65732833E-03 -1.46918103E-03  0.00000000E+00
 -1.03163250E-02  4.49980155E-03  0.00000000E+00 -7.15789287E-03 -8.71472185E-04
  0.00000000E+00  1.29158463E-02 -1.26653179E-03 -1.06111841E-03  0.00000000E+00
 -1.80598908E-03 -2.13580142E-03  0.00000000E+00 -9.90205887E-05  0.00000000E+00
  7.38513738E-04  7.87799487E-04  0.00000000E+00  1.12009293E-01  1.16867239E-01
 -5.65732833E-03 -1.46918103E-03  0.00000000E+00  1.03163250E-02  4.49980155E-03
  0.00000000E+00  7.15789287E-03 -8.71472185E-04  0.00000000E+00 -1.29158463E-02
 -1.26653179E-03 -1.06111841E-03  0.00000000E+00  1.80598908E-03 -2.13580142E-03
  0.00000000E+00 -9.90205887E-05  0.00000000E+00 -7.38513738E-04  7.87799487E-04
  0.00000000E+00  8.41819312E-02 -2.06167814E-01 -6.43982552E-02 -2.04395907E-01
 -2.90078639E-02  0.00000000E+00  0.00000000E+00 -6.19408035E-02  0.00000000E+00
  0.00000000E+00 -6.57136583E-02  0.00000000E+00  0.00000000E+00 -2.88706807E-02
  0.00000000E+00  0.00000000E+00 -6.02861597E-04  1.91909332E-03  0.00000000E+00
  0.00000000E+00 -4.24532598E-04  0.00000000E+00  2.44388820E-03  0.00000000E+00
  0.00000000E+00 -1.39531767E-03  0.00000000E+00  4.32048937E-04  0.00000000E+00
  0.00000000E+00 -1.05530199E-03  0.00000000E+00 -5.51005547E-04  0.00000000E+00
  0.00000000E+00 -8.75450525E-05  0.00000000E+00  0.00000000E+00  0.00000000E+00
  5.69862856E-04  0.00000000E+00  0.00000000E+00 -1.60453258E-04  0.00000000E+00
  0.00000000E+00  0.00000000E+00  0.00000000E+00  0.00000000E+00  0.00000000E+00
  0.00000000E+00  0.00000000E+00  0.00000000E+00  2.49417885E-01  0.00000000E+00
  0.00000000E+00  2.83864243E-01  0.00000000E+00  0.00000000E+00  1.16299981E-01
  0.00000000E+00  0.00000000E+00 -6.14830504E-03  0.00000000E+00  0.00000000E+00
  0.00000000E+00 -1.37960811E-03  0.00000000E+00  0.00000000E+00  0.00000000E+00
  0.00000000E+00 -2.12058189E-02  0.00000000E+00  0.00000000E+00  0.00000000E+00
  0.00000000E+00 -2.96284922E-02  0.00000000E+00  0.00000000E+00  0.00000000E+00
  0.00000000E+00  5.59681284E-03  0.00000000E+00  0.00000000E+00  0.00000000E+00
 -4.41492963E-04  0.00000000E+00  0.00000000E+00  5.57476478E-03  0.00000000E+00
  0.00000000E+00  0.00000000E+00  9.36015359E-04  1.19759295E-01  1.38282526E-01
  7.51407844E-03  5.77864584E-03  0.00000000E+00 -7.67449895E-03  8.21295577E-03
  0.00000000E+00  8.47061813E-03  8.30399612E-03  0.00000000E+00  1.19018238E-02
  3.95849358E-03  1.86590513E-03  0.00000000E+00 -3.46482213E-03 -5.26033467E-04
  0.00000000E+00  1.41060779E-03  0.00000000E+00  1.95126747E-03  2.40464399E-03
  0.00000000E+00 -1.19759295E-01 -1.38282526E-01 -7.51407844E-03 -5.77864584E-03
  0.00000000E+00 -7.67449895E-03 -8.21295577E-03  0.00000000E+00  8.47061813E-03
 -8.30399612E-03  0.00000000E+00  1.19018238E-02 -3.95849358E-03 -1.86590513E-03
  0.00000000E+00 -3.46482213E-03  5.26033467E-04  0.00000000E+00 -1.41060779E-03
  0.00000000E+00  1.95126747E-03 -2.40464399E-03  0.00000000E+00  0.00000000E+00
  0.00000000E+00  0.00000000E+00  0.00000000E+00  0.00000000E+00  0.00000000E+00
  1.68397492E-01  0.00000000E+00  0.00000000E+00  1.97155043E-01  0.00000000E+00
  0.00000000E+00  1.34563480E-01  0.00000000E+00  0.00000000E+00  1.87600679E-02
  0.00000000E+00  0.00000000E+00  0.00000000E+00 -7.25078295E-03  0.00000000E+00
  0.00000000E+00  0.00000000E+00  0.00000000E+00 -2.04514875E-02  0.00000000E+00
  0.00000000E+00  0.00000000E+00  0.00000000E+00 -1.15787182E-02  0.00000000E+00
  0.00000000E+00  0.00000000E+00  0.00000000E+00  4.48713375E-03  0.00000000E+00
  0.00000000E+00  0.00000000E+00  6.04473207E-04  0.00000000E+00  0.00000000E+00
  2.97103113E-03  0.00000000E+00  0.00000000E+00  0.00000000E+00  8.82219634E-04
  2.79849694E-02 -6.77920469E-02 -2.07936147E-02  3.80946665E-02 -6.04489295E-03
  0.00000000E+00  0.00000000E+00 -2.07211505E-01  0.00000000E+00  0.00000000E+00
 -2.05898829E-01  0.00000000E+00  0.00000000E+00 -6.79220528E-02  0.00000000E+00
  0.00000000E+00 -2.87953916E-03 -1.33354185E-02  0.00000000E+00  0.00000000E+00
 -3.49966423E-03  0.00000000E+00 -4.48879408E-03  0.00000000E+00  0.00000000E+00
  2.27151902E-04  0.00000000E+00 -6.53169386E-04  0.00000000E+00  0.00000000E+00
 -3.64300072E-03  0.00000000E+00 -6.98906884E-03  0.00000000E+00  0.00000000E+00
 -1.97494952E-03  0.00000000E+00  0.00000000E+00  0.00000000E+00  8.09869273E-03
  0.00000000E+00  0.00000000E+00  3.05448610E-03  0.00000000E+00  0.00000000E+00
  0.00000000E+00  5.32049128E-02  7.52650751E-02  1.44352759E-02  9.54517954E-04
  0.00000000E+00 -6.23240297E-03  7.92544214E-04  0.00000000E+00 -9.12002991E-03
 -9.46795440E-04  0.00000000E+00  2.05239253E-03 -5.16107046E-03 -2.06291196E-03
  0.00000000E+00 -7.35912480E-04 -1.64362337E-03  0.00000000E+00  3.49877990E-03
  0.00000000E+00  1.20441367E-03 -1.21318513E-03  0.00000000E+00  5.32049128E-02
  7.52650751E-02  1.44352759E-02  9.54517954E-04  0.00000000E+00  6.23240297E-03
  7.92544214E-04  0.00000000E+00  9.12002991E-03 -9.46795440E-04  0.00000000E+00
 -2.05239253E-03 -5.16107046E-03 -2.06291196E-03  0.00000000E+00  7.35912480E-04
 -1.64362337E-03  0.00000000E+00  3.49877990E-03  0.00000000E+00 -1.20441367E-03
 -1.21318513E-03  0.00000000E+00 -7.71102578E-02  1.90154823E-01  6.04458177E-02
  2.50998494E-01  8.46735986E-02  0.00000000E+00  0.00000000E+00  3.02767741E-01
  0.00000000E+00  0.00000000E+00  3.42565754E-01  0.00000000E+00  0.00000000E+00
  1.94600701E-01  0.00000000E+00  0.00000000E+00  8.43750808E-03 -1.10483143E-02
  0.00000000E+00  0.00000000E+00  3.27539973E-04  0.00000000E+00 -2.27764817E-02