 ub3lyp/6-31g* multiplicity=3 h2o
GAUSSIAN             10 MOL ORBITALS     36 PRIMITIVES        3 NUCLEI
  O    1    (CENTRE  1)   0.00000000  0.00000000  0.20940410  CHARGE =  8.0
  H    2    (CENTRE  2)   0.00000000  1.48149973 -0.83761639  CHARGE =  1.0
  H    3    (CENTRE  3)   0.00000000 -1.48149973 -0.83761639  CHARGE =  1.0
CENTRE ASSIGNMENTS    1  1  1  1  1  1  1  1  1  1  1  1  1  1  1  1  1  1  1  1
CENTRE ASSIGNMENTS    1  1  1  1  1  1  1  1  2  2  2  2  3  3  3  3
TYPE ASSIGNMENTS      1  1  1  1  1  1  1  1  1  2  2  2  3  3  3  4  4  4  1  2
TYPE ASSIGNMENTS      3  4  5  6  7  8  9 10  1  1  1  1  1  1  1  1
EXPONENTS  0.5484672D+04 0.8252349D+03 0.1880470D+03 0.5296450D+02 0.1689757D+02
EXPONENTS  0.5799635D+01 0.1553962D+02 0.3599934D+01 0.1013762D+01 0.1553962D+02
EXPONENTS  0.3599934D+01 0.1013762D+01 0.1553962D+02 0.3599934D+01 0.1013762D+01
EXPONENTS  0.1553962D+02 0.3599934D+01 0.1013762D+01 0.2700058D+00 0.2700058D+00
EXPONENTS  0.2700058D+00 0.2700058D+00 0.8000000D+00 0.8000000D+00 0.8000000D+00
EXPONENTS  0.8000000D+00 0.8000000D+00 0.8000000D+00 0.1873114D+02 0.2825394D+01
EXPONENTS  0.6401217D+00 0.1612778D+00 0.1873114D+02 0.2825394D+01 0.6401217D+00
EXPONENTS  0.1612778D+00
MO    1     MO 0.0        OCC NO =    1.0000000  ORB. ENERGY =  -19.335652
  0.82551906D+00  0.15193957D+01  0.24586691D+01  0.32319894D+01  0.27720585D+01
  0.94781389D+00 -0.16653571D-01 -0.74307908D-02  0.21943225D-01  0.00000000D+00
  0.00000000D+00  0.00000000D+00  0.00000000D+00  0.00000000D+00  0.00000000D+00
 -0.18844711D-02 -0.14518834D-02 -0.63745503D-03  0.30667466D-02  0.00000000D+00
  0.00000000D+00 -0.73971983D-04 -0.90570473D-02 -0.94380821D-02 -0.93454752D-02
  0.00000000D+00  0.00000000D+00  0.00000000D+00  0.10000863D-03  0.16963356D-03
  0.19312181D-03 -0.24176781D-03  0.10000863D-03  0.16963356D-03  0.19312181D-03
 -0.24176781D-03
MO    2     MO 0.0        OCC NO =    1.0000000  ORB. ENERGY =   -1.181243
 -0.18270522D+00 -0.33627514D+00 -0.54415665D+00 -0.71530914D+00 -0.61351650D+00
 -0.20977171D+00 -0.32529897D+00 -0.14514777D+00  0.42862330D+00  0.00000000D+00
  0.00000000D+00  0.00000000D+00  0.00000000D+00  0.00000000D+00  0.00000000D+00
 -0.35728410D+00 -0.27526814D+00 -0.12085754D+00  0.11575964D+00  0.00000000D+00
  0.00000000D+00 -0.12319874D-01  0.12536627D-01  0.17160373D-01  0.63314697D-02
  0.00000000D+00  0.00000000D+00  0.00000000D+00  0.25242597D-01  0.42816222D-01
  0.48744755D-01 -0.21232103D-02  0.25242597D-01  0.42816222D-01  0.48744755D-01
 -0.21232103D-02
MO    3     MO 0.0        OCC NO =    1.0000000  ORB. ENERGY =   -0.665850
  0.00000000D+00  0.00000000D+00  0.00000000D+00  0.00000000D+00  0.00000000D+00
  0.00000000D+00  0.00000000D+00  0.00000000D+00  0.00000000D+00  0.00000000D+00
  0.00000000D+00  0.00000000D+00  0.17910885D+01  0.13799371D+01  0.60586673D+00
  0.00000000D+00  0.00000000D+00  0.00000000D+00  0.00000000D+00  0.00000000D+00
  0.78956112D-01  0.00000000D+00  0.00000000D+00  0.00000000D+00  0.00000000D+00
  0.00000000D+00  0.00000000D+00 -0.72418768D-01  0.45665749D-01  0.77457754D-01
  0.88182915D-01  0.14737270D-01 -0.45665749D-01 -0.77457754D-01 -0.88182915D-01
 -0.14737270D-01
MO    4     MO 0.0        OCC NO =    1.0000000  ORB. ENERGY =   -0.534739
  0.00000000D+00  0.00000000D+00  0.00000000D+00  0.00000000D+00  0.00000000D+00
  0.00000000D+00  0.00000000D+00  0.00000000D+00  0.00000000D+00  0.22158700D+01
  0.17072084D+01  0.74955644D+00  0.00000000D+00  0.00000000D+00  0.00000000D+00
  0.00000000D+00  0.00000000D+00  0.00000000D+00  0.00000000D+00  0.11971321D+00
  0.00000000D+00  0.00000000D+00  0.00000000D+00  0.00000000D+00  0.00000000D+00
  0.00000000D+00 -0.51576170D-01  0.00000000D+00  0.00000000D+00  0.00000000D+00
  0.00000000D+00  0.00000000D+00  0.00000000D+00  0.00000000D+00  0.00000000D+00
  0.00000000D+00
MO    5     MO 0.0        OCC NO =    1.0000000  ORB. ENERGY =   -0.531463
 -0.55896909D-01 -0.10288015D+00 -0.16647950D+00 -0.21884197D+00 -0.18769949D+00
 -0.64177642D-01 -0.90007842D-01 -0.40161324D-01  0.11859693D+00  0.00000000D+00
  0.00000000D+00  0.00000000D+00  0.00000000D+00  0.00000000D+00  0.00000000D+00
  0.19582911D+01  0.15087577D+01  0.66242592D+00  0.75410365D-01  0.00000000D+00
  0.00000000D+00  0.10245689D+00  0.12508495D-01 -0.27453421D-02 -0.46056944D-01
  0.00000000D+00  0.00000000D+00  0.00000000D+00 -0.26952637D-01 -0.45716774D-01
 -0.52046931D-01 -0.10931804D-01 -0.26952637D-01 -0.45716774D-01 -0.52046931D-01
 -0.10931804D-01
MO    6     MO 0.0        OCC NO =    1.0000000  ORB. ENERGY =   -0.060386
 -0.83051795D-01 -0.15285964D+00 -0.24735575D+00 -0.32515606D+00 -0.27888446D+00
 -0.95355333D-01 -0.11107752D+00 -0.49562574D-01  0.14635894D+00  0.00000000D+00
  0.00000000D+00  0.00000000D+00  0.00000000D+00  0.00000000D+00  0.00000000D+00
 -0.80180327D+00 -0.61774620D+00 -0.27122385D+00  0.30913095D+00  0.00000000D+00
  0.00000000D+00 -0.10786613D+00 -0.36553279D-01 -0.50037709D-01 -0.29163768D-01
  0.00000000D+00  0.00000000D+00  0.00000000D+00 -0.31088802D-01 -0.52732492D-01
 -0.60034079D-01 -0.16851201D+00 -0.31088802D-01 -0.52732492D-01 -0.60034079D-01
 -0.16851201D+00
MO   20     MO 0.0        OCC NO =    1.0000000  ORB. ENERGY =  -19.301150
  0.82593080D+00  0.15201536D+01  0.24598954D+01  0.32336014D+01  0.27734411D+01
  0.94828662D+00 -0.15760107D-01 -0.70321291D-02  0.20765971D-01  0.00000000D+00
  0.00000000D+00  0.00000000D+00  0.00000000D+00  0.00000000D+00  0.00000000D+00
 -0.12675548D-02 -0.97658265D-03 -0.42877238D-03  0.27073622D-02  0.00000000D+00
  0.00000000D+00 -0.88729995D-04 -0.87214820D-02 -0.82605234D-02 -0.83090871D-02
  0.00000000D+00  0.00000000D+00  0.00000000D+00  0.66588302D-04  0.11294636D-03
  0.12858544D-03 -0.20634412D-03  0.66588302D-04  0.11294636D-03  0.12858544D-03
 -0.20634412D-03
MO   21     MO 0.0        OCC NO =    1.0000000  ORB. ENERGY =   -1.090277
 -0.17854772D+00 -0.32862311D+00 -0.53177423D+00 -0.69903210D+00 -0.59955577D+00
 -0.20499830D+00 -0.30475913D+00 -0.13598293D+00  0.40155941D+00  0.00000000D+00
  0.00000000D+00  0.00000000D+00  0.00000000D+00  0.00000000D+00  0.00000000D+00
 -0.30342462D+00 -0.23377231D+00 -0.10263864D+00  0.12007764D+00  0.00000000D+00
  0.00000000D+00 -0.12935134D-01 -0.14473699D-01  0.35849691D-01  0.18557448D-01
  0.00000000D+00  0.00000000D+00  0.00000000D+00  0.26991572D-01  0.45782815D-01
  0.52122116D-01 -0.13586671D-02  0.26991572D-01  0.45782815D-01  0.52122116D-01
 -0.13586671D-02
MO   22     MO 0.0        OCC NO =    1.0000000  ORB. ENERGY =   -0.630748
  0.00000000D+00  0.00000000D+00  0.00000000D+00  0.00000000D+00  0.00000000D+00
  0.00000000D+00  0.00000000D+00  0.00000000D+00  0.00000000D+00  0.00000000D+00
  0.00000000D+00  0.00000000D+00  0.17768403D+01  0.13689597D+01  0.60104703D+00
  0.00000000D+00  0.00000000D+00  0.00000000D+00  0.00000000D+00  0.00000000D+00
  0.83777291D-01  0.00000000D+00  0.00000000D+00  0.00000000D+00  0.00000000D+00
  0.00000000D+00  0.00000000D+00 -0.72781156D-01  0.46094890D-01  0.78185659D-01
  0.89011609D-01  0.11071447D-01 -0.46094890D-01 -0.78185659D-01 -0.89011609D-01
 -0.11071447D-01
MO   23     MO 0.0        OCC NO =    1.0000000  ORB. ENERGY =   -0.488955
 -0.55875776D-01 -0.10284126D+00 -0.16641657D+00 -0.21875923D+00 -0.18762852D+00
 -0.64153379D-01 -0.92781752D-01 -0.41399037D-01  0.12225191D+00  0.00000000D+00
  0.00000000D+00  0.00000000D+00  0.00000000D+00  0.00000000D+00  0.00000000D+00
  0.19057666D+01  0.14682904D+01  0.64465858D+00  0.73129079D-01  0.00000000D+00
  0.00000000D+00  0.10773546D+00  0.19328492D-02 -0.86007374D-03 -0.39285796D-01
  0.00000000D+00  0.00000000D+00  0.00000000D+00 -0.27686430D-01 -0.46961426D-01
 -0.53463924D-01 -0.99400334D-02 -0.27686430D-01 -0.46961426D-01 -0.53463924D-01
 -0.99400334D-02
END DATA
 THE  HF ENERGY =    -76.125434181439 THE VIRIAL(-V/T)=   1.99965469
