Title Card Required                                                     
SP        RHF                                                         6-31G(d)            
Number of atoms                            I                4
Info1-9                                    I   N=           9
          12          11           0           0           0         110
           1           1           2
Charge                                     I                0
Multiplicity                               I                1
Number of electrons                        I               18
Number of alpha electrons                  I                9
Number of beta electrons                   I                9
Number of basis functions                  I               34
Number of independent functions            I               34
Number of point charges in /Mol/           I                0
Number of translation vectors              I                0
Atomic numbers                             I   N=           4
           8           1           8           1
Nuclear charges                            R   N=           4
  8.00000000E+00  1.00000000E+00  8.00000000E+00  1.00000000E+00
Current cartesian coordinates              R   N=          12
 -1.38777878E-17  1.31946677E+00 -1.03262195E-01 -1.48758048E+00  1.69480535E+00
  8.26097558E-01 -1.24900090E-16 -1.31946677E+00 -1.03262195E-01  1.48758048E+00
 -1.69480535E+00  8.26097558E-01
Force Field                                I                0
Int Atom Types                             I   N=           4
           0           0           0           0
MM charges                                 R   N=           4
  0.00000000E+00  0.00000000E+00  0.00000000E+00  0.00000000E+00
Integer atomic weights                     I   N=           4
          16           1          16           1
Real atomic weights                        R   N=           4
  1.59949146E+01  1.00782504E+00  1.59949146E+01  1.00782504E+00
Atom fragment info                         I   N=           4
           0           0           0           0
Atom residue num                           I   N=           4
           0           0           0           0
Nuclear spins                              I   N=           4
           0           1           0           1
Nuclear ZEff                               R   N=           4
 -5.60000000E+00 -1.00000000E+00 -5.60000000E+00 -1.00000000E+00
Nuclear QMom                               R   N=           4
  0.00000000E+00  0.00000000E+00  0.00000000E+00  0.00000000E+00
Nuclear GFac                               R   N=           4
  0.00000000E+00  2.79284600E+00  0.00000000E+00  2.79284600E+00
MicOpt                                     I   N=           4
          -1          -1          -1          -1
Number of contracted shells                I               12
Number of primitive shells                 I               30
Pure/Cartesian d shells                    I                1
Pure/Cartesian f shells                    I                0
Highest angular momentum                   I                2
Largest degree of contraction              I                6
Shell types                                I   N=          12
           0          -1          -1           2           0           0
           0          -1          -1           2           0           0
Number of primitives per shell             I   N=          12
           6           3           1           1           3           1
           6           3           1           1           3           1
Shell to atom map                          I   N=          12
           1           1           1           1           2           2
           3           3           3           3           4           4
Primitive exponents                        R   N=          30
  5.48467166E+03  8.25234946E+02  1.88046958E+02  5.29645000E+01  1.68975704E+01
  5.79963534E+00  1.55396162E+01  3.59993359E+00  1.01376175E+00  2.70005823E-01
  8.00000000E-01  1.87311370E+01  2.82539436E+00  6.40121692E-01  1.61277759E-01
  5.48467166E+03  8.25234946E+02  1.88046958E+02  5.29645000E+01  1.68975704E+01
  5.79963534E+00  1.55396162E+01  3.59993359E+00  1.01376175E+00  2.70005823E-01
  8.00000000E-01  1.87311370E+01  2.82539436E+00  6.40121692E-01  1.61277759E-01
Contraction coefficients                   R   N=          30
  1.83107443E-03  1.39501722E-02  6.84450781E-02  2.32714336E-01  4.70192898E-01
  3.58520853E-01 -1.10777550E-01 -1.48026263E-01  1.13076702E+00  1.00000000E+00
  1.00000000E+00  3.34946043E-02  2.34726953E-01  8.13757326E-01  1.00000000E+00
  1.83107443E-03  1.39501722E-02  6.84450781E-02  2.32714336E-01  4.70192898E-01
  3.58520853E-01 -1.10777550E-01 -1.48026263E-01  1.13076702E+00  1.00000000E+00
  1.00000000E+00  3.34946043E-02  2.34726953E-01  8.13757326E-01  1.00000000E+00
P(S=P) Contraction coefficients            R   N=          30
  0.00000000E+00  0.00000000E+00  0.00000000E+00  0.00000000E+00  0.00000000E+00
  0.00000000E+00  7.08742682E-02  3.39752839E-01  7.27158577E-01  1.00000000E+00
  0.00000000E+00  0.00000000E+00  0.00000000E+00  0.00000000E+00  0.00000000E+00
  0.00000000E+00  0.00000000E+00  0.00000000E+00  0.00000000E+00  0.00000000E+00
  0.00000000E+00  7.08742682E-02  3.39752839E-01  7.27158577E-01  1.00000000E+00
  0.00000000E+00  0.00000000E+00  0.00000000E+00  0.00000000E+00  0.00000000E+00
Coordinates of each shell                  R   N=          36
 -1.83112799E-17  1.31946677E+00 -1.03262195E-01 -1.83112799E-17  1.31946677E+00
 -1.03262195E-01 -1.83112799E-17  1.31946677E+00 -1.03262195E-01 -1.83112799E-17
  1.31946677E+00 -1.03262195E-01 -1.48758048E+00  1.69480535E+00  8.26097558E-01
 -1.48758048E+00  1.69480535E+00  8.26097558E-01 -1.28178959E-16 -1.31946677E+00
 -1.03262195E-01 -1.28178959E-16 -1.31946677E+00 -1.03262195E-01 -1.28178959E-16
 -1.31946677E+00 -1.03262195E-01 -1.28178959E-16 -1.31946677E+00 -1.03262195E-01
  1.48758048E+00 -1.69480535E+00  8.26097558E-01  1.48758048E+00 -1.69480535E+00
  8.26097558E-01
Constraint Structure                       R   N=          12
 -1.83112799E-17  1.31946677E+00 -1.03262195E-01 -1.48758048E+00  1.69480535E+00
  8.26097558E-01 -1.28178959E-16 -1.31946677E+00 -1.03262195E-01  1.48758048E+00
 -1.69480535E+00  8.26097558E-01
Num ILSW                                   I              100
ILSW                                       I   N=         100
           0           1           0           0           2           0
           0           0           0           0           0          -1
           0           0           0           0           0           0
           0           0           1           0           0           0
           1           0           0           0           0           0
           0           0      100000           0          -1           0
           0           0           0           0           0           0
           0           0           0           1           0           0
           0           0           1           0           0           0
           0           0           4          40           0           0
           0           0           0           0           0           0
           0           0           0           0           0           0
           0           0           0           0           0           0
           0           0           0           0           0           0
           0           0           0           0           0           0
           0           0           0           0           0           0
           0           0           0           0
Num RLSW                                   I               40
RLSW                                       R   N=          40
  1.00000000E+00  1.00000000E+00  1.00000000E+00  1.00000000E+00  1.00000000E+00
  0.00000000E+00  0.00000000E+00  1.00000000E+00  0.00000000E+00  0.00000000E+00
  0.00000000E+00  0.00000000E+00  1.00000000E+00  0.00000000E+00  0.00000000E+00
  0.00000000E+00  0.00000000E+00  1.00000000E+00  0.00000000E+00  0.00000000E+00
  0.00000000E+00  0.00000000E+00  1.00000000E+00  0.00000000E+00  0.00000000E+00
  0.00000000E+00  0.00000000E+00  1.00000000E+00  0.00000000E+00  0.00000000E+00
  0.00000000E+00  0.00000000E+00  0.00000000E+00  0.00000000E+00  0.00000000E+00
  0.00000000E+00  0.00000000E+00  0.00000000E+00  1.00000000E+00  1.00000000E+00
MxBond                                     I                2
NBond                                      I   N=           4
           2           1           2           1
IBond                                      I   N=           8
           2           3           1           0           1           4
           3           0
RBond                                      R   N=           8
  1.00000000E+00  1.00000000E+00  1.00000000E+00  0.00000000E+00  1.00000000E+00
  1.00000000E+00  1.00000000E+00  0.00000000E+00
Virial Ratio                               R      2.002508688264748E+00
SCF Energy                                 R     -1.507647868662257E+02
Total Energy                               R     -1.507647868662257E+02
RMS Density                                R      6.180853382749436E-09
External E-field                           R   N=          35
  0.00000000E+00  0.00000000E+00  0.00000000E+00  0.00000000E+00  0.00000000E+00
  0.00000000E+00  0.00000000E+00  0.00000000E+00  0.00000000E+00  0.00000000E+00
  0.00000000E+00  0.00000000E+00  0.00000000E+00  0.00000000E+00  0.00000000E+00
  0.00000000E+00  0.00000000E+00  0.00000000E+00  0.00000000E+00  0.00000000E+00
  0.00000000E+00  0.00000000E+00  0.00000000E+00  0.00000000E+00  0.00000000E+00
  0.00000000E+00  0.00000000E+00  0.00000000E+00  0.00000000E+00  0.00000000E+00
  0.00000000E+00  0.00000000E+00  0.00000000E+00  0.00000000E+00  0.00000000E+00
IOpCl                                      I                0
IROHF                                      I                0
Alpha Orbital Energies                     R   N=          34
 -2.06283909E+01 -2.06280436E+01 -1.49824125E+00 -1.20569960E+00 -7.25362133E-01
 -7.14745962E-01 -6.18490348E-01 -5.08231526E-01 -4.68677873E-01  2.23484866E-01
  2.31022829E-01  3.47397900E-01  1.05752923E+00  1.06493023E+00  1.07013215E+00
  1.09068997E+00  1.16769503E+00  1.22182097E+00  1.27079550E+00  1.34812565E+00
  1.44177613E+00  1.56602538E+00  1.78098002E+00  1.78624686E+00  1.95023092E+00
  2.10772275E+00  2.40820100E+00  2.69460800E+00  2.72659819E+00  2.81390276E+00
  2.86827924E+00  3.27088280E+00  3.85734097E+00  4.07389310E+00
Alpha MO coefficients                      R   N=        1156
  7.03350106E-01  1.50091349E-02 -6.42630247E-04 -9.49287730E-04  4.42114401E-04
  2.61901666E-03  2.69721645E-04  3.25286040E-04 -1.12730900E-04 -2.71000186E-03
 -2.95822863E-03 -2.65735019E-03  2.30220276E-05  6.84213566E-05 -1.70070045E-05
  1.98940827E-04 -1.86574421E-04  7.03350106E-01  1.50091349E-02  6.42630247E-04
  9.49287730E-04  4.42114401E-04  2.61901666E-03 -2.69721645E-04 -3.25286040E-04
 -1.12730900E-04 -2.71000186E-03 -2.95822863E-03 -2.65735019E-03  2.30220276E-05
 -6.84213566E-05  1.70070045E-05  1.98940827E-04 -1.86574421E-04  7.03407229E-01
  1.47971253E-02 -6.28869237E-04 -4.62475678E-04  4.60702293E-04  2.26819404E-03
  2.52089317E-04  5.00421707E-04 -2.64943253E-04 -2.70688793E-03 -2.99652547E-03
 -2.62130865E-03  4.19668857E-05  9.68375967E-05 -7.07624883E-06  3.07346278E-04
 -6.77251627E-05 -7.03407229E-01 -1.47971253E-02 -6.28869237E-04 -4.62475678E-04
 -4.60702293E-04 -2.26819404E-03  2.52089317E-04  5.00421707E-04  2.64943253E-04
  2.70688793E-03  2.99652547E-03  2.62130865E-03 -4.19668857E-05  9.68375967E-05
 -7.07624883E-06 -3.07346278E-04  6.77251627E-05 -1.48894344E-01  3.41753966E-01
 -3.45678977E-02 -8.34103702E-02  2.79343854E-02  2.68011220E-01 -1.73263338E-02
 -3.09882740E-02  1.63546464E-02  9.12095163E-03  2.66345960E-02  2.06543028E-03
 -1.32643248E-03 -7.54697291E-03 -1.25307158E-03  8.20329477E-02 -8.83099217E-03
 -1.48894344E-01  3.41753966E-01  3.45678977E-02  8.34103702E-02  2.79343854E-02
  2.68011220E-01  1.73263338E-02  3.09882740E-02  1.63546464E-02  9.12095163E-03
  2.66345960E-02  2.06543028E-03 -1.32643248E-03  7.54697291E-03  1.25307158E-03
  8.20329477E-02 -8.83099217E-03 -1.49516089E-01  3.50296950E-01 -8.02657547E-02
  8.65943991E-02  4.24332913E-02  3.55526641E-01 -4.09225286E-02  3.89893592E-02
  2.56131601E-02  2.14347472E-02 -1.15847838E-02  1.02623510E-02 -4.77267806E-03
 -1.27540894E-02  4.39529864E-03  1.30012833E-01  1.44616480E-04  1.49516089E-01
 -3.50296950E-01 -8.02657547E-02  8.65943991E-02 -4.24332913E-02 -3.55526641E-01
 -4.09225286E-02  3.89893592E-02 -2.56131601E-02 -2.14347472E-02  1.15847838E-02
 -1.02623510E-02  4.77267806E-03 -1.27540894E-02  4.39529864E-03 -1.30012833E-01
 -1.44616480E-04  1.12208632E-02 -2.60574574E-02 -1.56482774E-01  2.33840568E-01
  2.87137472E-01 -3.57066087E-02 -9.11988521E-02  1.32154657E-01  1.71541945E-01
  1.92544071E-02 -3.06877050E-02  1.60417926E-02 -1.14306924E-02 -2.06963041E-02
 -3.45309748E-03  1.75665042E-01  7.67714404E-02  1.12208632E-02 -2.60574574E-02
  1.56482774E-01 -2.33840568E-01  2.87137472E-01 -3.57066087E-02  9.11988521E-02
 -1.32154657E-01  1.71541945E-01  1.92544071E-02 -3.06877050E-02  1.60417926E-02
 -1.14306924E-02  2.06963041E-02  3.45309748E-03  1.75665042E-01  7.67714404E-02
 -5.35112041E-02  1.24791478E-01  3.79901336E-01  4.54588822E-02 -5.84183578E-02
  2.01639073E-01  2.31576452E-01  3.67912532E-02 -2.79253180E-02 -1.99125436E-02
  2.61382209E-03  1.92007559E-03 -1.61656366E-02  1.72022870E-02 -6.17751714E-04
 -1.42351215E-01 -6.60487687E-02  5.35112041E-02 -1.24791478E-01  3.79901336E-01
  4.54588822E-02  5.84183578E-02 -2.01639073E-01  2.31576452E-01  3.67912532E-02
  2.79253180E-02  1.99125436E-02 -2.61382209E-03 -1.92007559E-03  1.61656366E-02
  1.72022870E-02 -6.17751714E-04  1.42351215E-01  6.60487687E-02 -3.05788110E-02
  7.49281414E-02 -7.32608866E-02  3.18571389E-01 -2.95570603E-01  1.34107134E-01
 -5.26256308E-02  2.08741152E-01 -2.06369464E-01  1.69477507E-02 -2.55498088E-02
 -1.77784738E-03 -1.18471282E-02  5.25299342E-03  2.06008749E-02  1.99238064E-02
  1.96358976E-02 -3.05788110E-02  7.49281414E-02  7.32608866E-02 -3.18571389E-01
 -2.95570603E-01  1.34107134E-01  5.26256308E-02 -2.08741152E-01 -2.06369464E-01
  1.69477507E-02 -2.55498088E-02 -1.77784738E-03 -1.18471282E-02 -5.25299342E-03
 -2.06008749E-02  1.99238064E-02  1.96358976E-02 -3.52405633E-02  7.43610311E-02
  4.00501099E-01  1.87489284E-01  1.27493669E-01  1.84763348E-01  2.97031312E-01
  1.30782428E-01  1.00405408E-01 -2.25891647E-02 -1.20480919E-02  9.62855151E-03
 -1.85536078E-04  8.99133134E-03 -2.79412155E-03 -1.12476854E-01 -5.09331358E-02
 -3.52405633E-02  7.43610311E-02 -4.00501099E-01 -1.87489284E-01  1.27493669E-01
  1.84763348E-01 -2.97031312E-01 -1.30782428E-01  1.00405408E-01 -2.25891647E-02
 -1.20480919E-02  9.62855151E-03 -1.85536078E-04 -8.99133134E-03  2.79412155E-03
 -1.12476854E-01 -5.09331358E-02  1.97403793E-02 -4.82486684E-02  1.15720598E-01
 -1.71787231E-02  4.69117171E-01 -8.64707605E-02  9.96778325E-02 -1.88392670E-02
  3.61499454E-01 -7.65718866E-03 -2.49165707E-03  1.61721121E-02 -7.00331537E-03
 -1.58709104E-02  5.54393798E-03  7.94517640E-02  5.25942912E-02 -1.97403793E-02
  4.82486684E-02  1.15720598E-01 -1.71787231E-02 -4.69117171E-01  8.64707605E-02
  9.96778325E-02 -1.88392670E-02 -3.61499454E-01  7.65718866E-03  2.49165707E-03
 -1.61721121E-02  7.00331537E-03 -1.58709104E-02  5.54393798E-03 -7.94517640E-02
 -5.25942912E-02  5.90606157E-02 -5.00911252E-02  1.41471688E-01 -6.36759387E-02
 -9.38616055E-02 -8.06634216E-01  3.58370635E-01 -1.10109756E-01 -2.20655792E-01
  2.54156153E-02  3.04142882E-02  3.22149664E-02  2.87496325E-03  1.23244068E-02
  5.66454175E-04  4.95613877E-02  1.13569511E+00  5.90606157E-02 -5.00911252E-02
 -1.41471688E-01  6.36759387E-02 -9.38616055E-02 -8.06634216E-01 -3.58370635E-01
  1.10109756E-01 -2.20655792E-01  2.54156153E-02  3.04142882E-02  3.22149664E-02
  2.87496325E-03 -1.23244068E-02 -5.66454175E-04  4.95613877E-02  1.13569511E+00
  7.40819098E-02 -8.85810930E-02  1.33903165E-01  1.76081669E-01 -8.76968503E-02
 -9.27333915E-01  3.29438258E-01  2.70739527E-01 -2.07018181E-01  1.48558767E-02
  3.92937736E-02  2.37466421E-02 -1.06955500E-02  8.74334065E-03  5.46718457E-03
  6.07948430E-02  1.06446339E+00 -7.40819098E-02  8.85810930E-02  1.33903165E-01
  1.76081669E-01  8.76968503E-02  9.27333915E-01  3.29438258E-01  2.70739527E-01
  2.07018181E-01 -1.48558767E-02 -3.92937736E-02 -2.37466421E-02  1.06955500E-02
  8.74334065E-03  5.46718457E-03 -6.07948430E-02 -1.06446339E+00  4.10300336E-02
 -1.39559637E-01 -1.05335589E-01  4.30411365E-01  6.14264314E-02 -2.13957471E-01
 -2.09833131E-01  8.38388662E-01  1.36193623E-01 -2.03024827E-02 -9.70018930E-03
 -2.16056785E-02 -9.24879544E-03  1.96379507E-04  1.24571668E-02 -4.98881112E-02
 -6.46567450E-01 -4.10300336E-02  1.39559637E-01 -1.05335589E-01  4.30411365E-01
 -6.14264314E-02  2.13957471E-01 -2.09833131E-01  8.38388662E-01 -1.36193623E-01
  2.03024827E-02  9.70018930E-03  2.16056785E-02  9.24879544E-03  1.96379507E-04
  1.24571668E-02  4.98881112E-02  6.46567450E-01 -1.63781145E-02  8.73738539E-02
 -1.78750673E-01 -4.30889116E-01  1.95317234E-01 -4.74296140E-01 -4.92573081E-02
  9.77197729E-01 -5.98530996E-03 -1.88084480E-02 -1.43837397E-01  4.01951425E-02
  6.70383343E-02  9.50449382E-02 -4.04569943E-03 -5.83003337E-01  2.66295028E-01
  1.63781145E-02 -8.73738539E-02 -1.78750673E-01 -4.30889116E-01 -1.95317234E-01
  4.74296140E-01 -4.92573081E-02  9.77197729E-01  5.98530996E-03  1.88084480E-02
  1.43837397E-01 -4.01951425E-02 -6.70383343E-02  9.50449382E-02 -4.04569943E-03
  5.83003337E-01 -2.66295028E-01  6.53509195E-03 -4.46689070E-01 -2.85972844E-01
 -3.18810876E-01 -1.48625400E-01  5.74304666E-01  3.67668189E-01  4.88797255E-01
  3.22612098E-02 -9.83882567E-02 -2.53384182E-01 -1.41103301E-01 -3.53147318E-02
 -6.48603459E-02  3.46785894E-03  4.69870907E-01 -4.01694247E-01 -6.53509195E-03
  4.46689070E-01 -2.85972844E-01 -3.18810876E-01  1.48625400E-01 -5.74304666E-01
  3.67668189E-01  4.88797255E-01 -3.22612098E-02  9.83882567E-02  2.53384182E-01
  1.41103301E-01  3.53147318E-02 -6.48603459E-02  3.46785894E-03 -4.69870907E-01
  4.01694247E-01  2.34020724E-03 -2.52700002E-01  3.02629052E-01  1.69690204E-01
  1.30907031E-01  3.42389152E-01  3.39647287E-02 -3.02383248E-01 -2.46969444E-01
  2.39916895E-02 -1.93117531E-01 -7.15734435E-02  3.86329618E-03 -7.64491255E-02
  2.85686733E-02  6.97631807E-01 -4.86339454E-01  2.34020724E-03 -2.52700002E-01
 -3.02629052E-01 -1.69690204E-01  1.30907031E-01  3.42389152E-01 -3.39647287E-02
  3.02383248E-01 -2.46969444E-01  2.39916895E-02 -1.93117531E-01 -7.15734435E-02
  3.86329618E-03  7.64491255E-02 -2.85686733E-02  6.97631807E-01 -4.86339454E-01
 -2.64770564E-02 -6.18748959E-01 -2.40746488E-01 -1.23682848E-01  4.56714751E-01
  1.20220447E+00  1.45116471E-01  1.87385745E-01 -3.38670371E-01 -2.31710488E-01
 -2.37160495E-01 -2.01655379E-01  8.51519496E-03  2.77330409E-02 -3.83859850E-02
 -1.55779081E-01 -1.48189649E-01 -2.64770564E-02 -6.18748959E-01  2.40746488E-01
  1.23682848E-01  4.56714751E-01  1.20220447E+00 -1.45116471E-01 -1.87385745E-01
 -3.38670371E-01 -2.31710488E-01 -2.37160495E-01 -2.01655379E-01  8.51519496E-03
 -2.77330409E-02  3.83859850E-02 -1.55779081E-01 -1.48189649E-01 -2.09420233E-02
 -3.84161825E-01 -4.12431267E-01  2.04562631E-01 -3.76493812E-01  6.96993121E-01
  6.08141880E-01 -2.36512820E-01  3.65289427E-01 -9.15678218E-02 -2.52057364E-01
 -8.30801999E-02  2.99808031E-02 -8.65565839E-03  4.82405280E-03  1.30848021E-01
 -2.76626349E-01 -2.09420233E-02 -3.84161825E-01  4.12431267E-01 -2.04562631E-01
 -3.76493812E-01  6.96993121E-01 -6.08141880E-01  2.36512820E-01  3.65289427E-01
 -9.15678218E-02 -2.52057364E-01 -8.30801999E-02  2.99808031E-02  8.65565839E-03
 -4.82405280E-03  1.30848021E-01 -2.76626349E-01 -4.02216105E-03  2.07178982E-01
 -2.97337689E-01  9.78038387E-02 -5.23080855E-01 -3.13025740E-01  2.44889758E-01
 -1.71460317E-01  8.47946702E-01  2.35479145E-02  9.58574124E-02  7.61957528E-02
  4.21366271E-02  4.31705509E-02  2.81077015E-02 -2.79847057E-01  3.10465023E-01
  4.02216105E-03 -2.07178982E-01 -2.97337689E-01  9.78038387E-02  5.23080855E-01
  3.13025740E-01  2.44889758E-01 -1.71460317E-01 -8.47946702E-01 -2.35479145E-02
 -9.58574124E-02 -7.61957528E-02 -4.21366271E-02  4.31705509E-02  2.81077015E-02
  2.79847057E-01 -3.10465023E-01  5.92631179E-03 -3.65076312E-01  1.04200357E-01
 -5.23237779E-01 -2.63233264E-01  8.67671628E-01 -1.10609196E-02  6.00636584E-01
  2.58514867E-01 -1.20902291E-01  3.38637268E-02 -1.71905493E-01 -1.09832511E-02
 -6.57361985E-02  5.52885974E-02  3.58899987E-01 -5.81361582E-01  5.92631179E-03
 -3.65076312E-01 -1.04200357E-01  5.23237779E-01 -2.63233264E-01  8.67671628E-01
  1.10609196E-02 -6.00636584E-01  2.58514867E-01 -1.20902291E-01  3.38637268E-02
 -1.71905493E-01 -1.09832511E-02  6.57361985E-02 -5.52885974E-02  3.58899987E-01
 -5.81361582E-01  1.72160919E-03 -1.38034721E-01  5.50771088E-01 -2.91034754E-01
 -3.39772685E-01  1.01122560E-01 -7.29408230E-01  8.45539205E-01  5.91100570E-01
 -6.87155009E-03 -1.14833603E-01 -2.07030727E-02 -8.75492706E-03  1.28064928E-02
  2.18725937E-02  8.66775388E-02 -8.31158082E-01 -1.72160919E-03  1.38034721E-01
  5.50771088E-01 -2.91034754E-01  3.39772685E-01 -1.01122560E-01 -7.29408230E-01
  8.45539205E-01 -5.91100570E-01  6.87155009E-03  1.14833603E-01  2.07030727E-02
  8.75492706E-03  1.28064928E-02  2.18725937E-02 -8.66775388E-02  8.31158082E-01
 -4.58557796E-02 -7.24876294E-01  3.87366444E-01  1.16444042E-01 -2.17530186E-01
  1.63579672E+00 -1.03117363E+00 -9.15954560E-03  4.17177029E-01 -2.61029784E-01
 -3.16013516E-01 -8.98714596E-02 -2.60833245E-02  9.23958856E-02 -1.06526257E-01
 -3.59801721E-01 -6.58173732E-01 -4.58557796E-02 -7.24876294E-01 -3.87366444E-01
 -1.16444042E-01 -2.17530186E-01  1.63579672E+00  1.03117363E+00  9.15954560E-03
  4.17177029E-01 -2.61029784E-01 -3.16013516E-01 -8.98714596E-02 -2.60833245E-02
 -9.23958856E-02  1.06526257E-01 -3.59801721E-01 -6.58173732E-01 -8.20210333E-02
 -1.10662933E+00  6.18808849E-02  2.15198786E-01 -1.87179234E-02  3.52596797E+00
 -1.90319071E-01 -1.51866201E+00  1.73744728E-01 -3.53128171E-01 -3.12507123E-01
 -2.81913029E-01  2.02674744E-01  1.70549376E-01 -1.17437952E-02 -2.25642054E-01
 -1.97199401E-01  8.20210333E-02  1.10662933E+00  6.18808849E-02  2.15198786E-01
  1.87179234E-02 -3.52596797E+00 -1.90319071E-01 -1.51866201E+00 -1.73744728E-01
  3.53128171E-01  3.12507123E-01  2.81913029E-01 -2.02674744E-01  1.70549376E-01
 -1.17437952E-02  2.25642054E-01  1.97199401E-01 -2.11740396E-02 -2.34176059E-01
 -2.26549193E-02  2.47149264E-02 -4.87699765E-03  7.99110501E-01 -1.65024131E-01
 -3.21287489E-01  8.16527568E-02 -7.31163872E-02 -6.74029319E-02 -5.53945469E-02
 -5.53341263E-01  3.03574953E-01  1.89897959E-02 -1.32206796E-01 -5.83198362E-02
  2.11740396E-02  2.34176059E-01 -2.26549193E-02  2.47149264E-02  4.87699765E-03
 -7.99110501E-01 -1.65024131E-01 -3.21287489E-01 -8.16527568E-02  7.31163872E-02
  6.74029319E-02  5.53945469E-02  5.53341263E-01  3.03574953E-01  1.89897959E-02
  1.32206796E-01  5.83198362E-02 -7.68498123E-03 -1.11950948E-01  2.40949985E-02
  3.58395134E-02  2.49124245E-02  2.46477973E-01 -1.50122067E-01 -2.49941329E-02
  1.32058970E-01 -2.16378318E-01 -4.37437156E-02  1.68811107E-01 -2.66127434E-02
  5.54806091E-02  5.90490095E-01 -1.23392079E-01 -7.83152932E-02 -7.68498123E-03
 -1.11950948E-01 -2.40949985E-02 -3.58395134E-02  2.49124245E-02  2.46477973E-01
  1.50122067E-01  2.49941329E-02  1.32058970E-01 -2.16378318E-01 -4.37437156E-02
  1.68811107E-01 -2.66127434E-02 -5.54806091E-02 -5.90490095E-01 -1.23392079E-01
 -7.83152932E-02  8.15208609E-03  1.50599357E-01 -3.69085657E-02 -3.89373626E-02
  8.59369232E-03 -3.30637777E-01  1.89606330E-01  1.29530043E-03 -1.25087719E-01
 -4.88645084E-01  2.97172270E-02  5.60263788E-01  2.08541473E-02 -2.70812996E-01
 -1.64952230E-01  1.70577199E-01  1.15563998E-01  8.15208609E-03  1.50599357E-01
  3.69085657E-02  3.89373626E-02  8.59369232E-03 -3.30637777E-01 -1.89606330E-01
 -1.29530043E-03 -1.25087719E-01 -4.88645084E-01  2.97172270E-02  5.60263788E-01
  2.08541473E-02  2.70812996E-01  1.64952230E-01  1.70577199E-01  1.15563998E-01
 -1.61373281E-02 -1.85874764E-01  1.47167241E-02  8.83855071E-03 -1.56614555E-02
  6.16520451E-01 -1.42004625E-01 -1.80405472E-01  7.77073544E-02 -5.89025960E-01
 -5.23515238E-02  5.06916008E-01 -1.18073366E-01 -3.07647292E-01  1.14959644E-02
 -1.59091468E-01 -8.89335957E-02  1.61373281E-02  1.85874764E-01  1.47167241E-02
  8.83855071E-03  1.56614555E-02 -6.16520451E-01 -1.42004625E-01 -1.80405472E-01
 -7.77073544E-02  5.89025960E-01  5.23515238E-02 -5.06916008E-01  1.18073366E-01
 -3.07647292E-01  1.14959644E-02  1.59091468E-01  8.89335957E-02  3.07193349E-03
 -4.20954491E-01  1.26275455E-02  4.05355060E-01 -5.96634902E-03  4.50711669E-01
 -1.26451051E-01 -2.79841168E-01  6.44538788E-02 -2.79064040E-01  4.63629372E-01
 -4.20024931E-01 -4.34090338E-02 -3.13786323E-01  3.50152444E-02 -1.33684597E-01
 -7.88845457E-02  3.07193349E-03 -4.20954491E-01 -1.26275455E-02 -4.05355060E-01
 -5.96634902E-03  4.50711669E-01  1.26451051E-01  2.79841168E-01  6.44538788E-02
 -2.79064040E-01  4.63629372E-01 -4.20024931E-01 -4.34090338E-02  3.13786323E-01
 -3.50152444E-02 -1.33684597E-01 -7.88845457E-02  9.78431387E-04 -4.54718718E-02
  7.55589517E-02  2.74626135E-02 -4.29109868E-03  6.54784353E-02 -3.53640326E-01
 -6.00434981E-03  4.63610767E-03 -4.16296849E-02  4.80153591E-02 -2.37653175E-02
  8.75819105E-01  4.67024563E-02  1.10345522E-02  7.19563034E-02 -7.34408865E-02
  9.78431387E-04 -4.54718718E-02 -7.55589517E-02 -2.74626135E-02 -4.29109868E-03
  6.54784353E-02  3.53640326E-01  6.00434981E-03  4.63610767E-03 -4.16296849E-02
  4.80153591E-02 -2.37653175E-02  8.75819105E-01 -4.67024563E-02 -1.10345522E-02
  7.19563034E-02 -7.34408865E-02 -9.62171352E-03 -8.98083570E-02 -2.95627296E-03
  9.69337153E-03  6.76238152E-02  3.25126559E-01 -5.89674526E-02 -1.32298790E-01
 -2.96778762E-01  5.05609070E-02 -3.82578501E-02 -7.26696214E-02 -2.40224050E-02
 -9.73434984E-02  8.69211928E-01 -1.73909536E-01  3.71889793E-02  9.62171352E-03
  8.98083570E-02 -2.95627296E-03  9.69337153E-03 -6.76238152E-02 -3.25126559E-01
 -5.89674526E-02 -1.32298790E-01  2.96778762E-01 -5.05609070E-02  3.82578501E-02
  7.26696214E-02  2.40224050E-02 -9.73434984E-02  8.69211928E-01  1.73909536E-01
 -3.71889793E-02 -5.33854443E-02 -6.05367454E-01  2.05510708E-02  4.36070704E-02
 -4.55796909E-02  2.05775979E+00 -5.08444007E-01 -6.33741944E-01  5.35096849E-01
  2.70323848E-01 -1.40810869E-01 -4.25178839E-01 -2.55049358E-01 -6.14100878E-01
 -1.27429147E-01 -1.01226927E+00 -8.85079726E-02  5.33854443E-02  6.05367454E-01
  2.05510708E-02  4.36070704E-02  4.55796909E-02 -2.05775979E+00 -5.08444007E-01
 -6.33741944E-01 -5.35096849E-01 -2.70323848E-01  1.40810869E-01  4.25178839E-01
  2.55049358E-01 -6.14100878E-01 -1.27429147E-01  1.01226927E+00  8.85079726E-02
  3.73301815E-02  6.81308541E-02 -5.71577188E-02  1.29272316E-01  1.09691187E-02
 -6.04214600E-01  7.04870406E-01 -2.04112888E-01 -2.77322028E-01 -3.63872386E-01
  3.95984570E-01  8.84595756E-02 -5.16800767E-02  7.03506710E-01 -1.36843477E-01
  9.28613148E-01  3.88932457E-02  3.73301815E-02  6.81308541E-02  5.71577188E-02
 -1.29272316E-01  1.09691187E-02 -6.04214600E-01 -7.04870406E-01  2.04112888E-01
 -2.77322028E-01 -3.63872386E-01  3.95984570E-01  8.84595756E-02 -5.16800767E-02
 -7.03506710E-01  1.36843477E-01  9.28613148E-01  3.88932457E-02 -9.46447831E-02
 -5.91366218E-01 -8.06072333E-03 -1.91805556E-01  7.18852769E-03  2.87063677E+00
  1.85465804E-02 -1.87104242E+00 -2.29954443E-02 -7.25825077E-01  1.12606980E+00
 -7.21920676E-01  4.47654527E-03  5.94377767E-03  8.32530287E-03  5.12288474E-02
 -9.84714232E-03  9.46447831E-02  5.91366218E-01 -8.06072333E-03 -1.91805556E-01
 -7.18852769E-03 -2.87063677E+00  1.85465804E-02 -1.87104242E+00  2.29954443E-02
  7.25825077E-01 -1.12606980E+00  7.21920676E-01 -4.47654527E-03  5.94377767E-03
  8.32530287E-03 -5.12288474E-02  9.84714232E-03 -3.25469769E-01  2.46898940E-01
  6.24004847E-02  4.69994764E-03 -5.34766573E-02  2.20460880E+00 -1.74277218E-01
 -2.56609293E-02  1.28390155E-01 -1.12993496E+00 -8.82435404E-01 -1.13929527E+00
  1.46301035E-02  1.75108009E-02  8.67532019E-03  1.46612875E-01 -5.20682681E-01
 -3.25469769E-01  2.46898940E-01 -6.24004847E-02 -4.69994764E-03 -5.34766573E-02
  2.20460880E+00  1.74277218E-01  2.56609293E-02  1.28390155E-01 -1.12993496E+00
 -8.82435404E-01 -1.13929527E+00  1.46301035E-02 -1.75108009E-02 -8.67532019E-03
  1.46612875E-01 -5.20682681E-01 -3.46624580E-01  8.12787183E-02  6.26087883E-02
  1.40187961E-01 -2.93345830E-02  3.38185793E+00 -2.09751130E-01 -5.40046600E-01
  1.35533710E-01 -1.13434970E+00 -1.23726845E+00 -1.17781298E+00 -3.32185624E-02
 -6.14928381E-02 -7.88765549E-03 -2.19966989E-02 -3.86745866E-01  3.46624580E-01
 -8.12787183E-02  6.26087883E-02  1.40187961E-01  2.93345830E-02 -3.38185793E+00
 -2.09751130E-01 -5.40046600E-01 -1.35533710E-01  1.13434970E+00  1.23726845E+00
  1.17781298E+00  3.32185624E-02 -6.14928381E-02 -7.88765549E-03  2.19966989E-02
  3.86745866E-01
Total SCF Density                          R   N=         595
  2.07912738E+00 -1.90258991E-01  5.39343166E-01 -3.08409876E-02  6.04909686E-02