 Title Card Required                                     
GAUSSIAN              7 MOL ORBITALS     33 PRIMITIVES        3 NUCLEI
  C    1    (CENTRE  1)   0.00000000  0.00000000 -0.93895092  CHARGE =  6.0
  N    2    (CENTRE  2)   0.00000000  0.00000000  1.22780906  CHARGE =  7.0
  H    3    (CENTRE  3)   0.00000000  0.00000000 -2.96095789  CHARGE =  1.0
CENTRE ASSIGNMENTS    1  1  1  1  1  1  1  1  1  1  1  1  1  1  1  2  2  2  2  2
CENTRE ASSIGNMENTS    2  2  2  2  2  2  2  2  2  2  3  3  3
TYPE ASSIGNMENTS      1  1  1  1  1  2  2  3  3  4  4  1  2  3  4  1  1  1  1  1
TYPE ASSIGNMENTS      2  2  3  3  4  4  1  2  3  4  1  1  1
EXPONENTS  0.1722560D+03 0.2591090D+02 0.5533350D+01 0.3664980D+01 0.7705450D+00
EXPONENTS  0.3664980D+01 0.7705450D+00 0.3664980D+01 0.7705450D+00 0.3664980D+01
EXPONENTS  0.7705450D+00 0.1958570D+00 0.1958570D+00 0.1958570D+00 0.1958570D+00
EXPONENTS  0.2427660D+03 0.3648510D+02 0.7814490D+01 0.5425220D+01 0.1149150D+01
EXPONENTS  0.5425220D+01 0.1149150D+01 0.5425220D+01 0.1149150D+01 0.5425220D+01
EXPONENTS  0.1149150D+01 0.2832050D+00 0.2832050D+00 0.2832050D+00 0.2832050D+00
EXPONENTS  0.5447178D+01 0.8245472D+00 0.1831916D+00
MO    1     MO 0.0        OCC NO =    2.0000000  ORB. ENERGY =  -15.529016
  0.22875868D-02  0.32095788D-02  0.19691205D-02 -0.14556706D-02  0.13880404D-02
  0.00000000D+00  0.00000000D+00  0.00000000D+00  0.00000000D+00 -0.19607245D-02
 -0.10159628D-02  0.75390992D-02  0.00000000D+00  0.00000000D+00  0.89592363D-02
  0.25886433D+01  0.36839119D+01  0.23216614D+01 -0.10822896D+00  0.10010989D+00
  0.00000000D+00  0.00000000D+00  0.00000000D+00  0.00000000D+00 -0.16661964D-01
 -0.86420930D-02 -0.24906857D-01  0.00000000D+00  0.00000000D+00  0.85489120D-02
  0.12507382D-02  0.17570429D-02  0.35370206D-02
MO    2     MO 0.0        OCC NO =    2.0000000  ORB. ENERGY =  -11.235064
  0.20638090D+01  0.28956094D+01  0.17764959D+01 -0.68663663D-01  0.65473564D-01
  0.00000000D+00  0.00000000D+00  0.00000000D+00  0.00000000D+00  0.26517690D-02
  0.13740323D-02 -0.64901609D-02  0.00000000D+00  0.00000000D+00  0.33731275D-02
 -0.74171566D-03 -0.10555395D-02 -0.66521820D-03 -0.62984770D-03  0.58259806D-03
  0.00000000D+00  0.00000000D+00  0.00000000D+00  0.00000000D+00  0.67273613D-02
  0.34892935D-02 -0.32317595D-02  0.00000000D+00  0.00000000D+00  0.22886026D-02
 -0.49377449D-03 -0.69365673D-03  0.38247333D-02
MO    3     MO 0.0        OCC NO =    2.0000000  ORB. ENERGY =   -1.261935
 -0.32535413D+00 -0.45648529D+00 -0.28005996D+00 -0.13324743D+00  0.12705679D+00
  0.00000000D+00  0.00000000D+00  0.00000000D+00  0.00000000D+00  0.35872542D+00
  0.18587603D+00  0.30008850D-01  0.00000000D+00  0.00000000D+00 -0.23675102D-01
 -0.51261726D+00 -0.72950833D+00 -0.45974805D+00 -0.19809651D+00  0.18323579D+00
  0.00000000D+00  0.00000000D+00  0.00000000D+00  0.00000000D+00 -0.51442596D+00
 -0.26681831D+00  0.16951028D+00  0.00000000D+00  0.00000000D+00 -0.46048444D-01
  0.10388818D-01  0.14594261D-01 -0.15484177D-01
MO    4     MO 0.0        OCC NO =    2.0000000  ORB. ENERGY =   -0.796181
 -0.28453641D+00 -0.39921634D+00 -0.24492468D+00 -0.11041153D+00  0.10528183D+00
  0.00000000D+00  0.00000000D+00  0.00000000D+00  0.00000000D+00 -0.50807188D+00
 -0.26326092D+00  0.82790420D-01  0.00000000D+00  0.00000000D+00 -0.43005583D-01
  0.18361677D+00  0.26130600D+00  0.16467931D+00  0.83750790D-01 -0.77468009D-01
  0.00000000D+00  0.00000000D+00  0.00000000D+00  0.00000000D+00 -0.19959887D-01
 -0.10352633D-01 -0.44155233D-01  0.00000000D+00  0.00000000D+00 -0.87045231D-02
  0.11131165D+00  0.15637114D+00  0.24309529D-01
MO    5     MO 0.0        OCC NO =    2.0000000  ORB. ENERGY =   -0.567194
  0.12693315D+00  0.17809246D+00  0.10926216D+00  0.75283349D-01 -0.71785701D-01
  0.00000000D+00  0.00000000D+00  0.00000000D+00  0.00000000D+00 -0.42843348D+00
 -0.22199574D+00 -0.14518261D-01  0.00000000D+00  0.00000000D+00 -0.72568556D-03
 -0.33146561D+00 -0.47171047D+00 -0.29727963D+00 -0.11311025D+00  0.10462499D+00
  0.00000000D+00  0.00000000D+00  0.00000000D+00  0.00000000D+00  0.11861804D+01
  0.61523848D+00  0.14705527D+00  0.00000000D+00  0.00000000D+00  0.11257996D+00
  0.30272255D-01  0.42526607D-01  0.24328830D-01
MO    6     MO 0.0        OCC NO =    2.0000000  ORB. ENERGY =   -0.496272
  0.00000000D+00  0.00000000D+00  0.00000000D+00  0.00000000D+00  0.00000000D+00
  0.58852948D+00  0.30495058D+00  0.00000000D+00  0.00000000D+00  0.00000000D+00
  0.00000000D+00  0.00000000D+00  0.62408126D-01  0.00000000D+00  0.00000000D+00
  0.00000000D+00  0.00000000D+00  0.00000000D+00  0.00000000D+00  0.00000000D+00
  0.10067655D+01  0.52218102D+00  0.00000000D+00  0.00000000D+00  0.00000000D+00
  0.00000000D+00  0.00000000D+00  0.10504234D+00  0.00000000D+00  0.00000000D+00
  0.00000000D+00  0.00000000D+00  0.00000000D+00
MO    7     MO 0.0        OCC NO =    2.0000000  ORB. ENERGY =   -0.496272
  0.00000000D+00  0.00000000D+00  0.00000000D+00  0.00000000D+00  0.00000000D+00
  0.00000000D+00  0.00000000D+00  0.58852948D+00  0.30495058D+00  0.00000000D+00
  0.00000000D+00  0.00000000D+00  0.00000000D+00  0.62408126D-01  0.00000000D+00
  0.00000000D+00  0.00000000D+00  0.00000000D+00  0.00000000D+00  0.00000000D+00
  0.00000000D+00  0.00000000D+00  0.10067655D+01  0.52218102D+00  0.00000000D+00
  0.00000000D+00  0.00000000D+00  0.00000000D+00  0.10504234D+00  0.00000000D+00
  0.00000000D+00  0.00000000D+00  0.00000000D+00
END DATA
 THE  HF ENERGY =    -92.353548004759 THE VIRIAL(-V/T)=   2.00351242
