2.97A                                                                   
SP        RHF                                                         6-311++G(d,p)       
Number of atoms                            I                2
Info1-9                                    I   N=           9
          10           9           0           0           0         110
           1           1           2
Charge                                     I                0
Multiplicity                               I                1
Number of electrons                        I                4
Number of alpha electrons                  I                2
Number of beta electrons                   I                2
Number of basis functions                  I               14
Number of independent functions            I               14
Number of point charges in /Mol/           I                0
Number of translation vectors              I                0
Atomic numbers                             I   N=           2
           2           2
Nuclear charges                            R   N=           2
  2.00000000E+00  2.00000000E+00
Current cartesian coordinates              R   N=           6
  0.00000000E+00  0.00000000E+00  2.80624331E+00  3.43654338E-16  0.00000000E+00
 -2.80624331E+00
Force Field                                I                0
Int Atom Types                             I   N=           2
           0           0
MM charges                                 R   N=           2
  0.00000000E+00  0.00000000E+00
Integer atomic weights                     I   N=           2
           4           4
Real atomic weights                        R   N=           2
  4.00260325E+00  4.00260325E+00
Atom fragment info                         I   N=           2
           0           0
Atom residue num                           I   N=           2
           0           0
Nuclear spins                              I   N=           2
           0           0
Nuclear ZEff                               R   N=           2
 -2.00000000E+00 -2.00000000E+00
Nuclear QMom                               R   N=           2
  0.00000000E+00  0.00000000E+00
Nuclear GFac                               R   N=           2
  0.00000000E+00  0.00000000E+00
MicOpt                                     I   N=           2
          -1          -1
Number of contracted shells                I               10
Number of primitive shells                 I               14
Pure/Cartesian d shells                    I                0
Pure/Cartesian f shells                    I                0
Highest angular momentum                   I                1
Largest degree of contraction              I                3
Shell types                                I   N=          10
           0           0           0           0           1           0
           0           0           0           1
Number of primitives per shell             I   N=          10
           3           1           1           1           1           3
           1           1           1           1
Shell to atom map                          I   N=          10
           1           1           1           1           1           2
           2           2           2           2
Primitive exponents                        R   N=          14
  9.81243000E+01  1.47689000E+01  3.31883000E+00  8.74047000E-01  2.44564000E-01
  8.60000000E-02  7.50000000E-01  9.81243000E+01  1.47689000E+01  3.31883000E+00
  8.74047000E-01  2.44564000E-01  8.60000000E-02  7.50000000E-01
Contraction coefficients                   R   N=          14
  2.87452025E-02  2.08061018E-01  8.37635073E-01  1.00000000E+00  1.00000000E+00
  1.00000000E+00  1.00000000E+00  2.87452025E-02  2.08061018E-01  8.37635073E-01
  1.00000000E+00  1.00000000E+00  1.00000000E+00  1.00000000E+00
Coordinates of each shell                  R   N=          30
  0.00000000E+00  0.00000000E+00  2.80624331E+00  0.00000000E+00  0.00000000E+00
  2.80624331E+00  0.00000000E+00  0.00000000E+00  2.80624331E+00  0.00000000E+00
  0.00000000E+00  2.80624331E+00  0.00000000E+00  0.00000000E+00  2.80624331E+00
  3.43654338E-16  0.00000000E+00 -2.80624331E+00  3.43654338E-16  0.00000000E+00
 -2.80624331E+00  3.43654338E-16  0.00000000E+00 -2.80624331E+00  3.43654338E-16
  0.00000000E+00 -2.80624331E+00  3.43654338E-16  0.00000000E+00 -2.80624331E+00
Constraint Structure                       R   N=           6
  0.00000000E+00  0.00000000E+00  2.80624331E+00  3.43654338E-16  0.00000000E+00
 -2.80624331E+00
Num ILSW                                   I              100
ILSW                                       I   N=         100
           0           0           0           0           2           0
           0           0           0           0           0          -1
           0           0           0           0           0           0
           0           0           1           0           0           0
           1           0           0           0           0           0
           0           0      100000           0          -1           0
           0           0           0           0           0           0
           0           0           0           1           0           0
           0           0           1           0           0           0
           0           0           4          40           0           0
           0           0           0           0           0           0
           0           0           0           0           0           0
           0           0           0           0           0           0
           0           0           0           0           0           0
           0           0           0           0           0           0
           0           0           0           0           0           0
           0           0           0           0
Num RLSW                                   I               40
RLSW                                       R   N=          40
  1.00000000E+00  1.00000000E+00  1.00000000E+00  1.00000000E+00  1.00000000E+00
  0.00000000E+00  0.00000000E+00  1.00000000E+00  0.00000000E+00  0.00000000E+00
  0.00000000E+00  0.00000000E+00  1.00000000E+00  0.00000000E+00  0.00000000E+00
  0.00000000E+00  0.00000000E+00  1.00000000E+00  0.00000000E+00  0.00000000E+00
  0.00000000E+00  0.00000000E+00  1.00000000E+00  0.00000000E+00  0.00000000E+00
  0.00000000E+00  0.00000000E+00  1.00000000E+00  0.00000000E+00  0.00000000E+00
  0.00000000E+00  0.00000000E+00  1.00000000E+00  0.00000000E+00  0.00000000E+00
  0.00000000E+00  0.00000000E+00  0.00000000E+00  1.00000000E+00  1.00000000E+00
MxBond                                     I                1
NBond                                      I   N=           2
           0           0
IBond                                      I   N=           2
           0           0
RBond                                      R   N=           2
  0.00000000E+00  0.00000000E+00
Virial Ratio                               R      2.001242875159417E+00
SCF Energy                                 R     -5.719946791570825E+00
Total Energy                               R     -5.719946791570825E+00
RMS Density                                R      2.512157437440171E-09
External E-field                           R   N=          35
  0.00000000E+00  0.00000000E+00  0.00000000E+00  0.00000000E+00  0.00000000E+00
  0.00000000E+00  0.00000000E+00  0.00000000E+00  0.00000000E+00  0.00000000E+00
  0.00000000E+00  0.00000000E+00  0.00000000E+00  0.00000000E+00  0.00000000E+00
  0.00000000E+00  0.00000000E+00  0.00000000E+00  0.00000000E+00  0.00000000E+00
  0.00000000E+00  0.00000000E+00  0.00000000E+00  0.00000000E+00  0.00000000E+00
  0.00000000E+00  0.00000000E+00  0.00000000E+00  0.00000000E+00  0.00000000E+00
  0.00000000E+00  0.00000000E+00  0.00000000E+00  0.00000000E+00  0.00000000E+00
IOpCl                                      I                0
IROHF                                      I                0
Alpha Orbital Energies                     R   N=          14
 -9.19732272E-01 -9.15353973E-01  1.74344233E-01  2.21130219E-01  1.17807679E+00
  1.17965931E+00  1.50202875E+00  1.50202875E+00  1.50217099E+00  1.50217099E+00
  1.51045478E+00  1.52350184E+00  6.65966996E+00  6.68055182E+00
Alpha MO coefficients                      R   N=         196
  1.85466414E-01  3.45786648E-01  2.71655869E-01  9.61159841E-03  0.00000000E+00
  0.00000000E+00 -4.04541319E-04  1.85466414E-01  3.45786648E-01  2.71655869E-01
  9.61159841E-03  0.00000000E+00  0.00000000E+00  4.04541319E-04  1.86554099E-01
  3.48128852E-01  2.73703585E-01  8.10696555E-03  0.00000000E+00  0.00000000E+00
  4.25051594E-04 -1.86554099E-01 -3.48128852E-01 -2.73703585E-01 -8.10696555E-03
  0.00000000E+00  0.00000000E+00  4.25051594E-04 -6.60960204E-02 -3.98000932E-02
 -6.61540315E-01  1.00845646E+00  0.00000000E+00  0.00000000E+00 -6.60113810E-03
 -6.60960204E-02 -3.98000932E-02 -6.61540315E-01  1.00845646E+00  0.00000000E+00
  0.00000000E+00  6.60113810E-03 -6.09944669E-02 -7.21267334E-03 -7.97647875E-01
  1.39820073E+00  0.00000000E+00  0.00000000E+00  1.22309663E-02  6.09944669E-02
  7.21267334E-03  7.97647875E-01 -1.39820073E+00  0.00000000E+00  0.00000000E+00
  1.22309663E-02 -9.89089039E-02 -9.64291330E-01  1.76422643E+00 -7.94621706E-01
  0.00000000E+00  0.00000000E+00  5.91024288E-02 -9.89089039E-02 -9.64291330E-01
  1.76422643E+00 -7.94621706E-01  0.00000000E+00  0.00000000E+00 -5.91024288E-02
 -1.02304600E-01 -9.53889241E-01  1.75459425E+00 -9.31370305E-01  0.00000000E+00
  0.00000000E+00 -8.32186857E-02  1.02304600E-01  9.53889241E-01 -1.75459425E+00
  9.31370305E-01  0.00000000E+00  0.00000000E+00 -8.32186857E-02  0.00000000E+00
  0.00000000E+00  0.00000000E+00  0.00000000E+00  0.00000000E+00  7.07104161E-01
  0.00000000E+00  0.00000000E+00  0.00000000E+00  0.00000000E+00  0.00000000E+00
  0.00000000E+00  7.07104161E-01  0.00000000E+00  0.00000000E+00  0.00000000E+00
  0.00000000E+00  0.00000000E+00  7.07104161E-01  0.00000000E+00  0.00000000E+00
  0.00000000E+00  0.00000000E+00  0.00000000E+00  0.00000000E+00  7.07104161E-01
  0.00000000E+00  0.00000000E+00  0.00000000E+00  0.00000000E+00  0.00000000E+00
  0.00000000E+00  7.07109401E-01  0.00000000E+00  0.00000000E+00  0.00000000E+00
  0.00000000E+00  0.00000000E+00  0.00000000E+00 -7.07109401E-01  0.00000000E+00
  0.00000000E+00  0.00000000E+00  0.00000000E+00  0.00000000E+00  0.00000000E+00
  0.00000000E+00  7.07109401E-01  0.00000000E+00  0.00000000E+00  0.00000000E+00
  0.00000000E+00  0.00000000E+00  0.00000000E+00 -7.07109401E-01  0.00000000E+00
  1.04137696E-02  1.08392046E-01 -2.45977540E-01  1.56884711E-01  0.00000000E+00
  0.00000000E+00  7.05953602E-01  1.04137696E-02  1.08392046E-01 -2.45977540E-01
  1.56884711E-01  0.00000000E+00  0.00000000E+00 -7.05953602E-01 -1.50671928E-02
 -1.49196960E-01  3.54097247E-01 -2.81310220E-01  0.00000000E+00  0.00000000E+00
  7.04810332E-01  1.50671928E-02  1.49196960E-01 -3.54097247E-01  2.81310220E-01
  0.00000000E+00  0.00000000E+00  7.04810332E-01 -1.04719125E+00  1.39384418E+00
 -9.35442532E-01  3.37862559E-01  0.00000000E+00  0.00000000E+00  1.03657783E-02
 -1.04719125E+00  1.39384418E+00 -9.35442532E-01  3.37862559E-01  0.00000000E+00
  0.00000000E+00 -1.03657783E-02 -1.04767820E+00  1.39747709E+00 -9.46249383E-01
  4.03983750E-01  0.00000000E+00  0.00000000E+00 -1.39228349E-02  1.04767820E+00
 -1.39747709E+00  9.46249383E-01 -4.03983750E-01  0.00000000E+00  0.00000000E+00
 -1.39228349E-02
Total SCF Density                          R   N=         105
  1.38400446E-01  2.58153348E-01  4.81524207E-01  2.02887132E-01  3.78438174E-01
  2.97421128E-01  6.59003270E-03  1.22916620E-02  9.65990531E-03  3.16211429E-04
  1.30613124E-22  2.47607343E-22  1.97226559E-22 -1.35444547E-23  1.29091746E-39
  1.30613124E-22  2.47607343E-22  1.97226559E-22 -1.35444547E-23  7.90432861E-56
  1.29091746E-39  8.53257856E-06  1.61754734E-05  1.28842421E-05 -8.84820146E-07
  1.05414891E-23  1.05414891E-23  6.88645072E-07 -8.09282259E-04 -1.62610952E-03
 -1.35497138E-03  5.40482072E-04 -4.72465209E-21 -4.72465209E-21 -3.08647890E-04
  1.38400446E-01 -1.62610952E-03 -3.25058372E-03 -2.69828462E-03  1.00258756E-03
 -8.81280951E-21 -8.81280951E-21 -5.75715420E-04  2.58153348E-01  4.81524207E-01
 -1.35497138E-03 -2.69828462E-03 -2.23348178E-03  7.84283179E-04 -6.92619501E-21
 -6.92619501E-21 -4.52468337E-04  2.02887132E-01  3.78438174E-01  2.97421128E-01
  5.40482072E-04  1.00258756E-03  7.84283179E-04  5.33198670E-05 -2.24536698E-22
 -2.24536698E-22 -1.46683347E-05  6.59003270E-03  1.22916620E-02  9.65990531E-03
  3.16211429E-04  4.72465209E-21  8.81280951E-21  6.92619501E-21  2.24536698E-22
  6.37924862E-41  3.90603420E-57  5.20922385E-25 -1.30613124E-22 -2.47607343E-22
 -1.97226559E-22  1.35444547E-23  1.29091746E-39  4.72465209E-21  8.81280951E-21
  6.92619501E-21  2.24536698E-22  3.90603420E-57  6.37924862E-41  5.20922385E-25
 -1.30613124E-22 -2.47607343E-22 -1.97226559E-22  1.35444547E-23  7.90432861E-56
  1.29091746E-39  3.08647890E-04  5.75715420E-04  4.52468337E-04  1.46683347E-05
  5.20922385E-25  5.20922385E-25  3.40303565E-08 -8.53257856E-06 -1.61754734E-05
 -1.28842421E-05  8.84820146E-07  1.05414891E-23  1.05414891E-23  6.88645072E-07
QEq coupling tensors                       R   N=          12
 -7.27100052E-06  0.00000000E+00 -7.27100052E-06 -2.05906095E-20  0.00000000E+00
  1.45420010E-05 -7.27100052E-06  0.00000000E+00 -7.27100052E-06 -2.05906095E-20
  0.00000000E+00  1.45420010E-05
Mulliken Charges                           R   N=           2
 -3.29741117E-15 -3.33066907E-15
ONIOM Charges                              I   N=          16
           0           0           0           0           0           0
           0           0           0           0           0           0
           0           0           0           0
ONIOM Multiplicities                       I   N=          16
           1           0           0           0           0           0
           0           0           0           0           0           0
           0           0           0           0
Atom Layers                                I   N=           2
           1           1
Atom Modifiers                             I   N=           2
           0           0
Force Field                                I                0
Int Atom Modified Types                    I   N=           2
           0           0
Link Atoms                                 I   N=           2
           0           0
Atom Modified MM Charges                   R   N=           2
  0.00000000E+00  0.00000000E+00
Link Distances                             R   N=           8
  0.00000000E+00  0.00000000E+00  0.00000000E+00  0.00000000E+00  0.00000000E+00
  0.00000000E+00  0.00000000E+00  0.00000000E+00
Cartesian Gradient                         R   N=           6
  0.00000000E+00  0.00000000E+00  0.00000000E+00  0.00000000E+00  0.00000000E+00
  0.00000000E+00
Dipole Moment                              R   N=           3
 -1.08468374E-30 -4.11423023E-38  5.55111512E-16
Quadrupole Moment                          R   N=           6
 -5.14656060E-04 -5.14656060E-04  1.02931212E-03  1.81010067E-37 -1.09389021E-19
 -2.97027169E-21
