opt b3lyp/6-31g*                                                        
FOpt      RB3LYP                                                      6-31G(d)            
Number of atoms                            I                6
Info1-9                                    I   N=           9
          14          13           0           0           0         100
           2          18        -502
Charge                                     I                0
Multiplicity                               I                1
Number of electrons                        I               18
Number of alpha electrons                  I                9
Number of beta electrons                   I                9
Number of basis functions                  I               90
Number of independent functions            I               90
Number of point charges in /Mol/           I                0
Number of translation vectors              I                0
Atomic numbers                             I   N=           6
           3           3           3           3           3           3
Nuclear charges                            R   N=           6
  3.00000000E+00  3.00000000E+00  3.00000000E+00  3.00000000E+00  3.00000000E+00
  3.00000000E+00
Current cartesian coordinates              R   N=          18
 -2.01236421E-16  5.28523987E-16 -3.28654870E+00  1.25534114E-15  2.84592756E+00
  1.64374678E+00 -1.40256096E-15 -2.84592756E+00  1.64374678E+00 -2.49643295E-15
 -5.65972977E+00 -3.26765144E+00  2.78936838E-15  5.65972977E+00 -3.26765144E+00
  4.00100817E-16 -1.05081813E-15  6.53435801E+00
Force Field                                I                0
Int Atom Types                             I   N=           6
           0           0           0           0           0           0
MM charges                                 R   N=           6
  0.00000000E+00  0.00000000E+00  0.00000000E+00  0.00000000E+00  0.00000000E+00
  0.00000000E+00
Integer atomic weights                     I   N=           6
           7           7           7           7           7           7
Real atomic weights                        R   N=           6
  7.01600450E+00  7.01600450E+00  7.01600450E+00  7.01600450E+00  7.01600450E+00
  7.01600450E+00
Atom fragment info                         I   N=           6
           0           0           0           0           0           0
Atom residue num                           I   N=           6
           0           0           0           0           0           0
Nuclear spins                              I   N=           6
           3           3           3           3           3           3
Nuclear ZEff                               R   N=           6
 -1.35000000E+00 -1.35000000E+00 -1.35000000E+00 -1.35000000E+00 -1.35000000E+00
 -1.35000000E+00
Nuclear QMom                               R   N=           6
 -4.01000000E+00 -4.01000000E+00 -4.01000000E+00 -4.01000000E+00 -4.01000000E+00
 -4.01000000E+00
Nuclear GFac                               R   N=           6
  3.25642400E+00  3.25642400E+00  3.25642400E+00  3.25642400E+00  3.25642400E+00
  3.25642400E+00
MicOpt                                     I   N=           6
          -1          -1          -1          -1          -1          -1
Number of contracted shells                I               24
Number of primitive shells                 I               66
Pure/Cartesian d shells                    I                1
Pure/Cartesian f shells                    I                0
Highest angular momentum                   I                2
Largest degree of contraction              I                6
Shell types                                I   N=          24
           0          -1          -1           2           0          -1
          -1           2           0          -1          -1           2
           0          -1          -1           2           0          -1
          -1           2           0          -1          -1           2
Number of primitives per shell             I   N=          24
           6           3           1           1           6           3
           1           1           6           3           1           1
           6           3           1           1           6           3
           1           1           6           3           1           1
Shell to atom map                          I   N=          24
           1           1           1           1           2           2
           2           2           3           3           3           3
           4           4           4           4           5           5
           5           5           6           6           6           6
Primitive exponents                        R   N=          66
  6.42418915E+02  9.67985153E+01  2.20911212E+01  6.20107025E+00  1.93511768E+00
  6.36735789E-01  2.32491841E+00  6.32430356E-01  7.90534348E-02  3.59619717E-02
  2.00000000E-01  6.42418915E+02  9.67985153E+01  2.20911212E+01  6.20107025E+00
  1.93511768E+00  6.36735789E-01  2.32491841E+00  6.32430356E-01  7.90534348E-02
  3.59619717E-02  2.00000000E-01  6.42418915E+02  9.67985153E+01  2.20911212E+01
  6.20107025E+00  1.93511768E+00  6.36735789E-01  2.32491841E+00  6.32430356E-01
  7.90534348E-02  3.59619717E-02  2.00000000E-01  6.42418915E+02  9.67985153E+01
  2.20911212E+01  6.20107025E+00  1.93511768E+00  6.36735789E-01  2.32491841E+00
  6.32430356E-01  7.90534348E-02  3.59619717E-02  2.00000000E-01  6.42418915E+02
  9.67985153E+01  2.20911212E+01  6.20107025E+00  1.93511768E+00  6.36735789E-01
  2.32491841E+00  6.32430356E-01  7.90534348E-02  3.59619717E-02  2.00000000E-01
  6.42418915E+02  9.67985153E+01  2.20911212E+01  6.20107025E+00  1.93511768E+00
  6.36735789E-01  2.32491841E+00  6.32430356E-01  7.90534348E-02  3.59619717E-02
  2.00000000E-01
Contraction coefficients                   R   N=          66
  2.14260781E-03  1.62088715E-02  7.73155725E-02  2.45786052E-01  4.70189004E-01
  3.45470845E-01 -3.50917457E-02 -1.91232843E-01  1.08398779E+00  1.00000000E+00
  1.00000000E+00  2.14260781E-03  1.62088715E-02  7.73155725E-02  2.45786052E-01
  4.70189004E-01  3.45470845E-01 -3.50917457E-02 -1.91232843E-01  1.08398779E+00
  1.00000000E+00  1.00000000E+00  2.14260781E-03  1.62088715E-02  7.73155725E-02
  2.45786052E-01  4.70189004E-01  3.45470845E-01 -3.50917457E-02 -1.91232843E-01
  1.08398779E+00  1.00000000E+00  1.00000000E+00  2.14260781E-03  1.62088715E-02
  7.73155725E-02  2.45786052E-01  4.70189004E-01  3.45470845E-01 -3.50917457E-02
 -1.91232843E-01  1.08398779E+00  1.00000000E+00  1.00000000E+00  2.14260781E-03
  1.62088715E-02  7.73155725E-02  2.45786052E-01  4.70189004E-01  3.45470845E-01
 -3.50917457E-02 -1.91232843E-01  1.08398779E+00  1.00000000E+00  1.00000000E+00
  2.14260781E-03  1.62088715E-02  7.73155725E-02  2.45786052E-01  4.70189004E-01
  3.45470845E-01 -3.50917457E-02 -1.91232843E-01  1.08398779E+00  1.00000000E+00
  1.00000000E+00
P(S=P) Contraction coefficients            R   N=          66
  0.00000000E+00  0.00000000E+00  0.00000000E+00  0.00000000E+00  0.00000000E+00
  0.00000000E+00  8.94150804E-03  1.41009464E-01  9.45363695E-01  1.00000000E+00
  0.00000000E+00  0.00000000E+00  0.00000000E+00  0.00000000E+00  0.00000000E+00
  0.00000000E+00  0.00000000E+00  8.94150804E-03  1.41009464E-01  9.45363695E-01
  1.00000000E+00  0.00000000E+00  0.00000000E+00  0.00000000E+00  0.00000000E+00
  0.00000000E+00  0.00000000E+00  0.00000000E+00  8.94150804E-03  1.41009464E-01
  9.45363695E-01  1.00000000E+00  0.00000000E+00  0.00000000E+00  0.00000000E+00
  0.00000000E+00  0.00000000E+00  0.00000000E+00  0.00000000E+00  8.94150804E-03
  1.41009464E-01  9.45363695E-01  1.00000000E+00  0.00000000E+00  0.00000000E+00
  0.00000000E+00  0.00000000E+00  0.00000000E+00  0.00000000E+00  0.00000000E+00
  8.94150804E-03  1.41009464E-01  9.45363695E-01  1.00000000E+00  0.00000000E+00
  0.00000000E+00  0.00000000E+00  0.00000000E+00  0.00000000E+00  0.00000000E+00
  0.00000000E+00  8.94150804E-03  1.41009464E-01  9.45363695E-01  1.00000000E+00
  0.00000000E+00
Coordinates of each shell                  R   N=          72
 -2.46519033E-32 -2.46519033E-32 -3.28654870E+00 -2.46519033E-32 -2.46519033E-32
 -3.28654870E+00 -2.46519033E-32 -2.46519033E-32 -3.28654870E+00 -2.46519033E-32
 -2.46519033E-32 -3.28654870E+00  3.69778549E-32  2.84592756E+00  1.64374678E+00
  3.69778549E-32  2.84592756E+00  1.64374678E+00  3.69778549E-32  2.84592756E+00
  1.64374678E+00  3.69778549E-32  2.84592756E+00  1.64374678E+00 -3.48514097E-16
 -2.84592756E+00  1.64374678E+00 -3.48514097E-16 -2.84592756E+00  1.64374678E+00
 -3.48514097E-16 -2.84592756E+00  1.64374678E+00 -3.48514097E-16 -2.84592756E+00
  1.64374678E+00 -1.23259516E-31 -5.65972977E+00 -3.26765144E+00 -1.23259516E-31
 -5.65972977E+00 -3.26765144E+00 -1.23259516E-31 -5.65972977E+00 -3.26765144E+00
 -1.23259516E-31 -5.65972977E+00 -3.26765144E+00  6.93094103E-16  5.65972977E+00
 -3.26765144E+00  6.93094103E-16  5.65972977E+00 -3.26765144E+00  6.93094103E-16
  5.65972977E+00 -3.26765144E+00  6.93094103E-16  5.65972977E+00 -3.26765144E+00
  0.00000000E+00  0.00000000E+00  6.53435801E+00  0.00000000E+00  0.00000000E+00
  6.53435801E+00  0.00000000E+00  0.00000000E+00  6.53435801E+00  0.00000000E+00
  0.00000000E+00  6.53435801E+00
Constraint Structure                       R   N=          18
 -2.46519033E-32 -2.46519033E-32 -3.28654870E+00  3.69778549E-32  2.84592756E+00
  1.64374678E+00 -3.48514097E-16 -2.84592756E+00  1.64374678E+00 -1.23259516E-31
 -5.65972977E+00 -3.26765144E+00  6.93094103E-16  5.65972977E+00 -3.26765144E+00
  0.00000000E+00  0.00000000E+00  6.53435801E+00
Num ILSW                                   I              100
ILSW                                       I   N=         100
           0           1           0           0           2           0
           0           0           0           0         402          -1
           0           0           0           0           0           0
           0           0           1           0           1           0
           1           0           0           0           0           0
           0           0      100000           0          -1           0
           0           0           0           0           0           0
           0           0           0           1           0           0
           0           0           1           0           0           0
           0           0           4          40           0           0
           0           0           5           0           0           0
           0           0           0           0           0           0
           0           0           0           0           0           0
           0           0           0           0           0           0
           0           0           0           0           0           0
           0           0           0           0           0           0
           0           0           0           0
Num RLSW                                   I               40
RLSW                                       R   N=          40
  8.00000000E-01  7.20000000E-01  1.00000000E+00  8.10000000E-01  2.00000000E-01
  0.00000000E+00  0.00000000E+00  1.00000000E+00  0.00000000E+00  0.00000000E+00
  0.00000000E+00  0.00000000E+00  1.00000000E+00  0.00000000E+00  0.00000000E+00
  0.00000000E+00  0.00000000E+00  1.00000000E+00  0.00000000E+00  0.00000000E+00
  0.00000000E+00  0.00000000E+00  1.00000000E+00  0.00000000E+00  0.00000000E+00
  0.00000000E+00  0.00000000E+00  1.00000000E+00  0.00000000E+00  0.00000000E+00
  0.00000000E+00  0.00000000E+00  0.00000000E+00  0.00000000E+00  0.00000000E+00
  0.00000000E+00  0.00000000E+00  0.00000000E+00  1.00000000E+00  1.00000000E+00
MxBond                                     I                4
NBond                                      I   N=           6
           4           4           4           2           2           2
IBond                                      I   N=          24
           2           3           4           5           1           3
           5           6           1           2           4           6
           1           3           0           0           1           2
           0           0           2           3           0           0
RBond                                      R   N=          24
  1.00000000E+00  1.00000000E+00  1.00000000E+00  1.00000000E+00  1.00000000E+00
  1.00000000E+00  1.00000000E+00  1.00000000E+00  1.00000000E+00  1.00000000E+00
  1.00000000E+00  1.00000000E+00  1.00000000E+00  1.00000000E+00  0.00000000E+00
  0.00000000E+00  1.00000000E+00  1.00000000E+00  0.00000000E+00  0.00000000E+00
  1.00000000E+00  1.00000000E+00  0.00000000E+00  0.00000000E+00
Virial Ratio                               R      2.007600010356024E+00
SCF Energy                                 R     -4.510327182350432E+01
Total Energy                               R     -4.510327182350432E+01
RMS Force                                  R      9.341166987810050E-06
RMS Density                                R      4.278184190531603E-09
External E-field                           R   N=          35
  0.00000000E+00  0.00000000E+00  0.00000000E+00  0.00000000E+00  0.00000000E+00
  0.00000000E+00  0.00000000E+00  0.00000000E+00  0.00000000E+00  0.00000000E+00
  0.00000000E+00  0.00000000E+00  0.00000000E+00  0.00000000E+00  0.00000000E+00
  0.00000000E+00  0.00000000E+00  0.00000000E+00  0.00000000E+00  0.00000000E+00
  0.00000000E+00  0.00000000E+00  0.00000000E+00  0.00000000E+00  0.00000000E+00
  0.00000000E+00  0.00000000E+00  0.00000000E+00  0.00000000E+00  0.00000000E+00
  0.00000000E+00  0.00000000E+00  0.00000000E+00  0.00000000E+00  0.00000000E+00
IOpCl                                      I                0
IROHF                                      I                0
Alpha Orbital Energies                     R   N=          90
 -1.98448592E+00 -1.98448482E+00 -1.98447374E+00 -1.97610953E+00 -1.97600245E+00
 -1.97600122E+00 -1.68291552E-01 -1.27380730E-01 -1.27364682E-01 -5.46265709E-02
 -4.46149647E-02 -4.46035412E-02 -4.23945369E-02 -2.32813054E-02 -2.32782059E-02
 -9.69504853E-03 -9.68648668E-03 -8.45984504E-03  6.84330859E-03  4.04702294E-02
  5.18427750E-02  5.18503897E-02  6.19874025E-02  6.19976229E-02  6.22369304E-02
  7.44999967E-02  7.45031099E-02  8.26648802E-02  8.26654275E-02  8.55434458E-02
  1.08452711E-01  1.14072834E-01  1.25404404E-01  1.30026402E-01  1.30041283E-01
  1.54847181E-01  1.54850391E-01  1.66761147E-01  1.68163919E-01  1.68177514E-01
  1.69618386E-01  1.75506204E-01  1.75513505E-01  2.02876411E-01  2.02910600E-01
  2.07555662E-01  2.48685688E-01  2.48690462E-01  2.62489395E-01  3.59646821E-01
  3.59654682E-01  3.60172739E-01  3.60202517E-01  3.75798329E-01  3.93047268E-01
  4.10695106E-01  4.14783031E-01  4.14820468E-01  4.78594262E-01  4.85858359E-01
  4.85922436E-01  4.94636388E-01  4.94645415E-01  5.06632249E-01  5.19290212E-01
  5.35293771E-01  5.35295998E-01  5.46586305E-01  5.90208905E-01  5.90233811E-01
  6.06060403E-01  6.06095259E-01  6.39440572E-01  6.39446698E-01  6.49417128E-01
  6.78569071E-01  6.87284265E-01  6.87318704E-01  7.65735589E-01  7.65823108E-01
  8.01686819E-01  8.53723555E-01  9.00054772E-01  9.00059926E-01  1.17280110E+00
  1.27291249E+00  1.27292267E+00  1.55937585E+00  1.60203502E+00  1.60206570E+00
Alpha MO coefficients                      R   N=        8100
  0.00000000E+00  0.00000000E+00  0.00000000E+00  9.93346334E-03  0.00000000E+00
  0.00000000E+00  0.00000000E+00 -3.93122590E-02  0.00000000E+00  0.00000000E+00
  0.00000000E+00  0.00000000E+00  0.00000000E+00  0.00000000E+00 -3.86881659E-04
 -1.75777372E-03  1.03224430E-02  0.00000000E+00  3.19132674E-03 -3.89224229E-03
 -1.72742675E-02  0.00000000E+00 -1.29330420E-02  1.52305868E-02 -1.54165842E-03
 -1.34971425E-03 -1.20305027E-03  0.00000000E+00  0.00000000E+00 -5.33227307E-04
  1.75777372E-03 -1.03224430E-02  0.00000000E+00  3.19132674E-03  3.89224229E-03
  1.72742675E-02  0.00000000E+00 -1.29330420E-02 -1.52305868E-02  1.54165842E-03
  1.34971425E-03  1.20305027E-03  0.00000000E+00  0.00000000E+00 -5.33227307E-04
  7.07466291E-01  7.44207929E-02  0.00000000E+00  1.90722925E-03  1.21799757E-03
 -8.28840107E-02  0.00000000E+00 -1.90609068E-02 -1.01047809E-02 -1.14121557E-02
 -1.02852441E-02 -1.08992735E-02  0.00000000E+00  0.00000000E+00  4.36193289E-04
 -7.07466291E-01 -7.44207929E-02  0.00000000E+00  1.90722925E-03 -1.21799757E-03
  8.28840107E-02  0.00000000E+00 -1.90609068E-02  1.01047809E-02  1.14121557E-02
  1.02852441E-02  1.08992735E-02  0.00000000E+00  0.00000000E+00  4.36193289E-04
  0.00000000E+00  0.00000000E+00  0.00000000E+00 -2.03503150E-04  0.00000000E+00
  0.00000000E+00  0.00000000E+00 -1.55757928E-03  0.00000000E+00  0.00000000E+00
  0.00000000E+00  0.00000000E+00  0.00000000E+00  0.00000000E+00 -1.77191043E-04
  3.80738451E-03 -2.01821687E-02  0.00000000E+00  0.00000000E+00  1.24113967E-03
  3.77650929E-02  0.00000000E+00  0.00000000E+00 -4.81891092E-03  3.11911712E-03
  1.55554771E-03  3.40744172E-03  0.00000000E+00  0.00000000E+00  0.00000000E+00
  1.85622736E-03 -8.80129661E-03  0.00000000E+00 -3.03079637E-03  4.56922878E-03
  1.86990868E-02  0.00000000E+00  1.15849641E-02 -1.83240954E-02  1.42043940E-03
  1.13715410E-03  1.01100929E-03  0.00000000E+00  0.00000000E+00  5.52276551E-04
  1.85622736E-03 -8.80129661E-03  0.00000000E+00  3.03079637E-03  4.56922878E-03
  1.86990868E-02  0.00000000E+00 -1.15849641E-02 -1.83240954E-02  1.42043940E-03
  1.13715410E-03  1.01100929E-03  0.00000000E+00  0.00000000E+00 -5.52276551E-04
  7.05454674E-01  7.36236680E-02  0.00000000E+00  1.94416574E-03  9.92413132E-04
 -6.84929152E-02  0.00000000E+00 -1.43327992E-02 -9.26378086E-03 -1.12607784E-02
 -1.04296076E-02 -1.07407045E-02  0.00000000E+00  0.00000000E+00  5.06074115E-04
  7.05454674E-01  7.36236680E-02  0.00000000E+00 -1.94416574E-03  9.92413132E-04
 -6.84929152E-02  0.00000000E+00  1.43327992E-02 -9.26378086E-03 -1.12607784E-02
 -1.04296076E-02 -1.07407045E-02  0.00000000E+00  0.00000000E+00 -5.06074115E-04
 -7.41073521E-02 -8.38406228E-03  0.00000000E+00  0.00000000E+00  3.11326495E-04
  2.28564858E-02  0.00000000E+00  0.00000000E+00 -6.71667166E-03  1.31470243E-03
  1.15924255E-03  1.01489302E-03  0.00000000E+00  0.00000000E+00  0.00000000E+00
  5.00859518E-04 -1.18899206E-03  0.00000000E+00  0.00000000E+00 -1.99613924E-04
  5.25981438E-03  0.00000000E+00  0.00000000E+00  1.38697625E-03  2.64974483E-04
  2.49315341E-05  2.46946551E-04  0.00000000E+00  0.00000000E+00  0.00000000E+00
  2.88082969E-03 -1.49936687E-02  0.00000000E+00  2.54746105E-03 -6.19583017E-03
  2.83996004E-02  0.00000000E+00 -1.01953254E-02  2.44515462E-02  2.32449020E-03
  2.38267199E-03  1.30258626E-03  0.00000000E+00  0.00000000E+00  5.62960594E-04
  2.88082969E-03 -1.49936687E-02  0.00000000E+00 -2.54746105E-03 -6.19583017E-03
  2.83996004E-02  0.00000000E+00  1.01953254E-02  2.44515462E-02  2.32449020E-03
  2.38267199E-03  1.30258626E-03  0.00000000E+00  0.00000000E+00 -5.62960594E-04
  5.22911768E-02  5.01832513E-03  0.00000000E+00  2.33595235E-05  1.69594173E-04
  5.54347016E-03  0.00000000E+00  1.28018634E-03  1.94018913E-03 -7.45640865E-04
 -7.04620640E-04 -9.00170971E-04  0.00000000E+00  0.00000000E+00 -4.22310121E-05
  5.22911768E-02  5.01832513E-03  0.00000000E+00 -2.33595235E-05  1.69594173E-04
  5.54347016E-03  0.00000000E+00 -1.28018634E-03  1.94018913E-03 -7.45640865E-04
 -7.04620640E-04 -9.00170971E-04  0.00000000E+00  0.00000000E+00  4.22310121E-05
  9.97707175E-01  1.04493409E-01  0.00000000E+00  0.00000000E+00 -3.13203727E-03
 -1.05276448E-01  0.00000000E+00  0.00000000E+00  2.67484865E-02 -1.60005222E-02
 -1.56197504E-02 -1.42998096E-02  0.00000000E+00  0.00000000E+00  0.00000000E+00
  5.82176526E-01  5.56105941E-02  0.00000000E+00  0.00000000E+00 -1.84156369E-03
 -3.81931054E-02  0.00000000E+00  0.00000000E+00  1.44113842E-03 -9.69593880E-03
 -6.89339996E-03 -9.63515816E-03  0.00000000E+00  0.00000000E+00  0.00000000E+00
  5.73915192E-01  5.45293632E-02  0.00000000E+00  1.65412163E-03  9.84053899E-04
 -3.71771089E-02  0.00000000E+00 -1.40547883E-03 -8.07150357E-04 -9.51172623E-03
 -8.79239389E-03 -7.44237238E-03  0.00000000E+00  0.00000000E+00 -1.36832784E-03
  5.73915192E-01  5.45293632E-02  0.00000000E+00 -1.65412163E-03  9.84053899E-04
 -3.71771089E-02  0.00000000E+00  1.40547883E-03 -8.07150357E-04 -9.51172623E-03
 -8.79239389E-03 -7.44237238E-03  0.00000000E+00  0.00000000E+00  1.36832784E-03
 -5.97931601E-03 -1.82751479E-02  0.00000000E+00 -4.66324568E-03 -2.65415277E-03
  2.48777351E-02  0.00000000E+00  7.81613753E-03  4.46024131E-03  3.14580534E-03
  1.88059340E-03  2.17746406E-03  0.00000000E+00  0.00000000E+00 -2.74134172E-04
 -5.97931601E-03 -1.82751479E-02  0.00000000E+00  4.66324568E-03 -2.65415277E-03
  2.48777351E-02  0.00000000E+00 -7.81613753E-03  4.46024131E-03  3.14580534E-03
  1.88059340E-03  2.17746406E-03  0.00000000E+00  0.00000000E+00  2.74134172E-04
 -5.97762467E-03 -1.81668946E-02  0.00000000E+00  0.00000000E+00  5.33613219E-03
  2.46190464E-02  0.00000000E+00  0.00000000E+00 -8.89237380E-03  3.12411676E-03
  2.29376932E-03  1.74256177E-03  0.00000000E+00  0.00000000E+00  0.00000000E+00
  8.14085066E-01  1.06688571E-01  0.00000000E+00  0.00000000E+00  8.25967869E-03
 -1.00691289E-01  0.00000000E+00  0.00000000E+00 -1.78649405E-02 -1.82072709E-02
 -1.37729328E-02 -1.50692741E-02  0.00000000E+00  0.00000000E+00  0.00000000E+00
 -4.12866285E-01 -5.38992458E-02  0.00000000E+00  1.96733085E-03  4.81347852E-03
  5.07315648E-02  0.00000000E+00 -8.30756327E-03 -3.44482875E-03  9.20061641E-03
  8.42038335E-03  6.16530960E-03  0.00000000E+00  0.00000000E+00 -3.00664372E-04
 -4.12866285E-01 -5.38992458E-02  0.00000000E+00 -1.96733085E-03  4.81347852E-03
  5.07315648E-02  0.00000000E+00  8.30756327E-03 -3.44482875E-03  9.20061641E-03
  8.42038335E-03  6.16530960E-03  0.00000000E+00  0.00000000E+00  3.00664372E-04
 -1.94777876E-03 -6.11047452E-03  0.00000000E+00 -3.75224921E-03  3.37305163E-03
  1.37400925E-02  0.00000000E+00  8.02455141E-03 -2.98917395E-03  1.11551532E-03
 -6.97270134E-04  2.02101882E-03  0.00000000E+00  0.00000000E+00  6.99372350E-04
 -1.94777876E-03 -6.11047452E-03  0.00000000E+00  3.75224921E-03  3.37305163E-03
  1.37400925E-02  0.00000000E+00 -8.02455141E-03 -2.98917395E-03  1.11551532E-03
 -6.97270134E-04  2.02101882E-03  0.00000000E+00  0.00000000E+00 -6.99372350E-04
  4.02998170E-03  1.25931200E-02  0.00000000E+00  0.00000000E+00 -3.23405267E-03
 -2.79961849E-02  0.00000000E+00  0.00000000E+00  1.10948525E-02 -2.29458983E-03
 -1.68018813E-03 -1.05020738E-03  0.00000000E+00  0.00000000E+00  0.00000000E+00
  0.00000000E+00  0.00000000E+00  0.00000000E+00 -3.67939317E-03  0.00000000E+00
  0.00000000E+00  0.00000000E+00 -1.34550201E-03  0.00000000E+00  0.00000000E+00
  0.00000000E+00  0.00000000E+00  0.00000000E+00  0.00000000E+00 -1.47567669E-03
  7.08397990E-01  9.27265615E-02  0.00000000E+00 -7.10971608E-03 -1.97422491E-03
 -8.74360238E-02  0.00000000E+00  1.30641099E-02  8.30459098E-03 -1.58251658E-02
 -1.22695319E-02 -1.28059730E-02  0.00000000E+00  0.00000000E+00 -9.39004575E-04
 -7.08397990E-01 -9.27265615E-02  0.00000000E+00 -7.10971608E-03  1.97422491E-03
  8.74360238E-02  0.00000000E+00  1.30641099E-02 -8.30459098E-03  1.58251658E-02
  1.22695319E-02  1.28059730E-02  0.00000000E+00  0.00000000E+00 -9.39004575E-04
  3.42896465E-03  1.07862975E-02  0.00000000E+00  1.01219001E-03  3.78236630E-03
 -2.40684360E-02  0.00000000E+00 -6.36326661E-03 -8.07286395E-03 -1.96786778E-03
 -1.77255483E-03 -5.64159027E-04  0.00000000E+00  0.00000000E+00  7.65443994E-04
 -3.42896465E-03 -1.07862975E-02  0.00000000E+00  1.01219001E-03 -3.78236630E-03
  2.40684360E-02  0.00000000E+00 -6.36326661E-03  8.07286395E-03  1.96786778E-03
  1.77255483E-03  5.64159027E-04  0.00000000E+00  0.00000000E+00  7.65443994E-04
  0.00000000E+00  0.00000000E+00  0.00000000E+00 -5.54390916E-03  0.00000000E+00
  0.00000000E+00  0.00000000E+00  7.62977887E-03  0.00000000E+00  0.00000000E+00
  0.00000000E+00  0.00000000E+00  0.00000000E+00  0.00000000E+00  1.97230883E-03
 -1.12038312E-01  1.53625300E-01  0.00000000E+00  0.00000000E+00  7.06904481E-02
  1.12013731E-01  0.00000000E+00  0.00000000E+00 -3.46952360E-02 -3.93282521E-03
  1.00427237E-02  5.69112623E-03  0.00000000E+00  0.00000000E+00  0.00000000E+00
 -1.12081553E-01  1.53665766E-01  0.00000000E+00 -6.12547557E-02 -3.52775741E-02
  1.12040574E-01  0.00000000E+00  3.01321162E-02  1.72356283E-02 -3.93054854E-03
  6.78393925E-03  8.95852168E-03  0.00000000E+00  0.00000000E+00 -2.18028473E-03
 -1.12081553E-01  1.53665766E-01  0.00000000E+00  6.12547557E-02 -3.52775741E-02
  1.12040574E-01  0.00000000E+00 -3.01321162E-02  1.72356283E-02 -3.93054854E-03
  6.78393925E-03  8.95852168E-03  0.00000000E+00  0.00000000E+00  2.18028473E-03
 -6.92336345E-02  1.20961675E-01  0.00000000E+00  6.84095710E-02  3.94996210E-02
  1.07014936E-01  0.00000000E+00 -1.05036414E-02 -6.08772930E-03 -2.94694342E-03
  4.85060760E-03  2.92600335E-03  0.00000000E+00  0.00000000E+00  1.92683285E-03
 -6.92336345E-02  1.20961675E-01  0.00000000E+00 -6.84095710E-02  3.94996210E-02
  1.07014936E-01  0.00000000E+00  1.05036414E-02 -6.08772930E-03 -2.94694342E-03
  4.85060760E-03  2.92600335E-03  0.00000000E+00  0.00000000E+00 -1.92683285E-03
 -6.93126398E-02  1.21029529E-01  0.00000000E+00  0.00000000E+00 -7.90600130E-02
  1.07374493E-01  0.00000000E+00  0.00000000E+00  1.20706648E-02 -2.94033272E-03
  1.97289010E-03  5.82253973E-03  0.00000000E+00  0.00000000E+00  0.00000000E+00
  8.46560498E-02 -1.17176605E-01  0.00000000E+00  0.00000000E+00  3.22469451E-02
 -1.10777895E-01  0.00000000E+00  0.00000000E+00  5.62660278E-02 -6.31658288E-05
 -9.85689552E-03  3.99759520E-03  0.00000000E+00  0.00000000E+00  0.00000000E+00
 -4.23079958E-02  5.85348705E-02  0.00000000E+00 -9.48076666E-02  1.96510888E-01
  5.52791667E-02  0.00000000E+00  9.04372884E-02 -1.00389140E-01  3.63475016E-05
  2.42933865E-03  5.06936321E-04  0.00000000E+00  0.00000000E+00 -5.25834445E-03
 -4.23079958E-02  5.85348705E-02  0.00000000E+00  9.48076666E-02  1.96510888E-01
  5.52791667E-02  0.00000000E+00 -9.04372884E-02 -1.00389140E-01  3.63475016E-05
  2.42933865E-03  5.06936321E-04  0.00000000E+00  0.00000000E+00  5.25834445E-03
  7.26797422E-02 -9.31989880E-02  0.00000000E+00 -5.46595787E-02  1.38986796E-02
 -2.42003325E-01  0.00000000E+00  9.83897212E-03 -2.80861503E-02 -2.71624967E-03
 -9.12387375E-03 -1.33651205E-03  0.00000000E+00  0.00000000E+00  2.38021295E-03
  7.26797422E-02 -9.31989880E-02  0.00000000E+00  5.46595787E-02  1.38986796E-02
 -2.42003325E-01  0.00000000E+00 -9.83897212E-03 -2.80861503E-02 -2.71624967E-03
 -9.12387375E-03 -1.33651205E-03  0.00000000E+00  0.00000000E+00 -2.38021295E-03
 -1.45333568E-01  1.86237140E-01  0.00000000E+00  0.00000000E+00 -8.07319902E-02
  4.83958074E-01  0.00000000E+00  0.00000000E+00 -1.10252710E-02  5.44770333E-03
  1.01588747E-02  1.08166336E-02  0.00000000E+00  0.00000000E+00  0.00000000E+00
  0.00000000E+00  0.00000000E+00  0.00000000E+00 -2.51217356E-01  0.00000000E+00
  0.00000000E+00  0.00000000E+00  1.52501630E-01  0.00000000E+00  0.00000000E+00
  0.00000000E+00  0.00000000E+00  0.00000000E+00  0.00000000E+00 -4.14447437E-03
  7.32776012E-02 -1.01420765E-01  0.00000000E+00 -8.70147945E-02  9.47833711E-02
 -9.59135492E-02  0.00000000E+00 -4.11010343E-03 -9.03670342E-02 -5.52550014E-05
  2.01524986E-03 -7.08719853E-03  0.00000000E+00  0.00000000E+00  4.96123733E-03
 -7.32776012E-02  1.01420765E-01  0.00000000E+00 -8.70147945E-02 -9.47833711E-02
  9.59135492E-02  0.00000000E+00 -4.11010343E-03  9.03670342E-02  5.52550014E-05
 -2.01524986E-03  7.08719853E-03  0.00000000E+00  0.00000000E+00  4.96123733E-03
 -1.25852690E-01  1.61363329E-01  0.00000000E+00  4.91760593E-02  5.46285477E-02
  4.19036866E-01  0.00000000E+00  1.66910214E-02 -9.85182505E-03  4.70674867E-03
  7.00229072E-03  1.11197404E-02  0.00000000E+00  0.00000000E+00  1.74660430E-03
  1.25852690E-01 -1.61363329E-01  0.00000000E+00  4.91760593E-02 -5.46285477E-02
 -4.19036866E-01  0.00000000E+00  1.66910214E-02  9.85182505E-03 -4.70674867E-03
 -7.00229072E-03 -1.11197404E-02  0.00000000E+00  0.00000000E+00  1.74660430E-03
  0.00000000E+00  0.00000000E+00  0.00000000E+00 -4.54846973E-02  0.00000000E+00
  0.00000000E+00  0.00000000E+00  3.37527604E-02  0.00000000E+00  0.00000000E+00
  0.00000000E+00  0.00000000E+00  0.00000000E+00  0.00000000E+00  5.86226577E-03
  4.81116662E-02 -9.97179525E-02  0.00000000E+00  0.00000000E+00 -1.62851497E-01
  1.13642437E-01  0.00000000E+00  0.00000000E+00 -4.33329642E-02  5.95428407E-03
  1.27154462E-02 -2.75099348E-03  0.00000000E+00  0.00000000E+00  0.00000000E+00
  4.81245628E-02 -9.97218761E-02  0.00000000E+00  1.41026634E-01  8.14653987E-02
  1.13741684E-01  0.00000000E+00  3.74604387E-02  2.17278408E-02  5.95168781E-03
  1.10553665E-03  8.84735326E-03  0.00000000E+00  0.00000000E+00 -7.72878052E-03
  4.81245628E-02 -9.97218761E-02  0.00000000E+00 -1.41026634E-01  8.14653987E-02
  1.13741684E-01  0.00000000E+00 -3.74604387E-02  2.17278408E-02  5.95168781E-03
  1.10553665E-03  8.84735326E-03  0.00000000E+00  0.00000000E+00  7.72878052E-03
 -6.93054118E-02  8.93495227E-02  0.00000000E+00 -1.04102157E-01 -6.01209483E-02
  2.29578256E-01  0.00000000E+00 -1.61484549E-01 -9.32196283E-02  9.01382852E-03
  4.09205720E-03  9.52214959E-03  0.00000000E+00  0.00000000E+00 -5.42893742E-03