Generated by Multiwfn                                                   
SP        RB3LYP                                                      6-31G(d)            
Number of atoms                            I               20
Info1-9                                    I   N=           9
          28          27           0           0           0         110
           1          18        -502
Charge                                     I                0
Multiplicity                               I                1
Number of electrons                        I               76
Number of alpha electrons                  I               38
Number of beta electrons                   I               38
Number of basis functions                  I              183
Number of independent functions            I              183
Number of point charges in /Mol/           I                0
Number of translation vectors              I                0
Atomic numbers                             I   N=          20
           6           6           6           6           7           1
           1           1           1           6           6           6
           6           1           6           1           6           1
           1           1
Nuclear charges                            R   N=          20
  6.00000000E+00  6.00000000E+00  6.00000000E+00  6.00000000E+00  7.00000000E+00
  1.00000000E+00  1.00000000E+00  1.00000000E+00  1.00000000E+00  6.00000000E+00
  6.00000000E+00  6.00000000E+00  6.00000000E+00  1.00000000E+00  6.00000000E+00
  1.00000000E+00  6.00000000E+00  1.00000000E+00  1.00000000E+00  1.00000000E+00
Current cartesian coordinates              R   N=          60
 -7.43962431E-16  2.11957178E+00  3.44889975E+00 -1.15829972E-15  1.34756382E+00
  5.92348686E+00 -1.18290582E-15 -1.34756382E+00  5.92348686E+00 -7.82665166E-16
 -2.11957178E+00  3.44889975E+00 -3.49303201E-16  0.00000000E+00  1.90158052E+00
 -6.99959579E-16  4.00284465E+00  2.67519668E+00 -1.52196066E-15  2.58102784E+00
  7.55338143E+00 -1.56908944E-15 -2.58102784E+00  7.55338143E+00 -7.73050302E-16
 -4.00284465E+00  2.67519668E+00  1.43319080E-16  0.00000000E+00 -7.80218844E-01
  5.11212584E-16 -2.27950310E+00 -2.13646594E+00  5.52835616E-16  2.27950310E+00
 -2.13646594E+00  9.94289172E-16 -2.26846144E+00 -4.76943101E+00  4.24784440E-16
 -4.07658933E+00 -1.15624793E+00  1.03571059E-15  2.26846144E+00 -4.76943101E+00
  4.99221719E-16  4.07658933E+00 -1.15624793E+00  1.12254067E-15  0.00000000E+00
 -6.11102895E+00  1.27174837E-15 -4.06095184E+00 -5.77149239E+00  1.34590012E-15
  4.06095184E+00 -5.77149239E+00  1.49949757E-15  0.00000000E+00 -8.16315453E+00
Force Field                                I                0
Int Atom Types                             I   N=          20
           0           0           0           0           0           0
           0           0           0           0           0           0
           0           0           0           0           0           0
           0           0
MM charges                                 R   N=          20
  0.00000000E+00  0.00000000E+00  0.00000000E+00  0.00000000E+00  0.00000000E+00
  0.00000000E+00  0.00000000E+00  0.00000000E+00  0.00000000E+00  0.00000000E+00
  0.00000000E+00  0.00000000E+00  0.00000000E+00  0.00000000E+00  0.00000000E+00
  0.00000000E+00  0.00000000E+00  0.00000000E+00  0.00000000E+00  0.00000000E+00
Integer atomic weights                     I   N=          20
          12          12          12          12          14           1
           1           1           1          12          12          12
          12           1          12           1          12           1
           1           1
Real atomic weights                        R   N=          20
  1.20000000E+01  1.20000000E+01  1.20000000E+01  1.20000000E+01  1.40030740E+01
  1.00782504E+00  1.00782504E+00  1.00782504E+00  1.00782504E+00  1.20000000E+01
  1.20000000E+01  1.20000000E+01  1.20000000E+01  1.00782504E+00  1.20000000E+01
  1.00782504E+00  1.20000000E+01  1.00782504E+00  1.00782504E+00  1.00782504E+00
Atom fragment info                         I   N=          20
           0           0           0           0           0           0
           0           0           0           0           0           0
           0           0           0           0           0           0
           0           0
Atom residue num                           I   N=          20
           0           0           0           0           0           0
           0           0           0           0           0           0
           0           0           0           0           0           0
           0           0
Nuclear spins                              I   N=          20
           0           0           0           0           2           1
           1           1           1           0           0           0
           0           1           0           1           0           1
           1           1
Nuclear ZEff                               R   N=          20
 -3.60000000E+00 -3.60000000E+00 -3.60000000E+00 -3.60000000E+00 -4.55000000E+00
 -1.00000000E+00 -1.00000000E+00 -1.00000000E+00 -1.00000000E+00 -3.60000000E+00
 -3.60000000E+00 -3.60000000E+00 -3.60000000E+00 -1.00000000E+00 -3.60000000E+00
 -1.00000000E+00 -3.60000000E+00 -1.00000000E+00 -1.00000000E+00 -1.00000000E+00
Nuclear QMom                               R   N=          20
  0.00000000E+00  0.00000000E+00  0.00000000E+00  0.00000000E+00  2.04400000E+00
  0.00000000E+00  0.00000000E+00  0.00000000E+00  0.00000000E+00  0.00000000E+00
  0.00000000E+00  0.00000000E+00  0.00000000E+00  0.00000000E+00  0.00000000E+00
  0.00000000E+00  0.00000000E+00  0.00000000E+00  0.00000000E+00  0.00000000E+00
Nuclear GFac                               R   N=          20
  0.00000000E+00  0.00000000E+00  0.00000000E+00  0.00000000E+00  4.03761000E-01
  2.79284600E+00  2.79284600E+00  2.79284600E+00  2.79284600E+00  0.00000000E+00
  0.00000000E+00  0.00000000E+00  0.00000000E+00  2.79284600E+00  0.00000000E+00
  2.79284600E+00  0.00000000E+00  2.79284600E+00  2.79284600E+00  2.79284600E+00
MicOpt                                     I   N=          20
          -1          -1          -1          -1          -1          -1
          -1          -1          -1          -1          -1          -1
          -1          -1          -1          -1          -1          -1
          -1          -1
Number of contracted shells                I               62
Number of primitive shells                 I              157
Pure/Cartesian d shells                    I                1
Pure/Cartesian f shells                    I                0
Highest angular momentum                   I                2
Largest degree of contraction              I                6
Shell types                                I   N=          62
           0          -1          -1           2           0          -1
          -1           2           0          -1          -1           2
           0          -1          -1           2           0          -1
          -1           2           0           0           0           0
           0           0           0           0           0          -1
          -1           2           0          -1          -1           2
           0          -1          -1           2           0          -1
          -1           2           0           0           0          -1
          -1           2           0           0           0          -1
          -1           2           0           0           0           0
           0           0
Number of primitives per shell             I   N=          62
           6           3           1           1           6           3
           1           1           6           3           1           1
           6           3           1           1           6           3
           1           1           3           1           3           1
           3           1           3           1           6           3
           1           1           6           3           1           1
           6           3           1           1           6           3
           1           1           3           1           6           3
           1           1           3           1           6           3
           1           1           3           1           3           1
           3           1
Shell to atom map                          I   N=          62
           1           1           1           1           2           2
           2           2           3           3           3           3
           4           4           4           4           5           5
           5           5           6           6           7           7
           8           8           9           9          10          10
          10          10          11          11          11          11
          12          12          12          12          13          13
          13          13          14          14          15          15
          15          15          16          16          17          17
          17          17          18          18          19          19
          20          20
Primitive exponents                        R   N=         157
  3.04752488E+03  4.57369518E+02  1.03948685E+02  2.92101553E+01  9.28666296E+00
  3.16392696E+00  7.86827235E+00  1.88128854E+00  5.44249258E-01  1.68714478E-01
  8.00000000E-01  3.04752488E+03  4.57369518E+02  1.03948685E+02  2.92101553E+01
  9.28666296E+00  3.16392696E+00  7.86827235E+00  1.88128854E+00  5.44249258E-01
  1.68714478E-01  8.00000000E-01  3.04752488E+03  4.57369518E+02  1.03948685E+02
  2.92101553E+01  9.28666296E+00  3.16392696E+00  7.86827235E+00  1.88128854E+00
  5.44249258E-01  1.68714478E-01  8.00000000E-01  3.04752488E+03  4.57369518E+02
  1.03948685E+02  2.92101553E+01  9.28666296E+00  3.16392696E+00  7.86827235E+00
  1.88128854E+00  5.44249258E-01  1.68714478E-01  8.00000000E-01  4.17351146E+03
  6.27457911E+02  1.42902093E+02  4.02343293E+01  1.28202129E+01  4.39043701E+00
  1.16263619E+01  2.71627981E+00  7.72218397E-01  2.12031498E-01  8.00000000E-01
  1.87311370E+01  2.82539436E+00  6.40121692E-01  1.61277759E-01  1.87311370E+01
  2.82539436E+00  6.40121692E-01  1.61277759E-01  1.87311370E+01  2.82539436E+00
  6.40121692E-01  1.61277759E-01  1.87311370E+01  2.82539436E+00  6.40121692E-01
  1.61277759E-01  3.04752488E+03  4.57369518E+02  1.03948685E+02  2.92101553E+01
  9.28666296E+00  3.16392696E+00  7.86827235E+00  1.88128854E+00  5.44249258E-01
  1.68714478E-01  8.00000000E-01  3.04752488E+03  4.57369518E+02  1.03948685E+02
  2.92101553E+01  9.28666296E+00  3.16392696E+00  7.86827235E+00  1.88128854E+00
  5.44249258E-01  1.68714478E-01  8.00000000E-01  3.04752488E+03  4.57369518E+02
  1.03948685E+02  2.92101553E+01  9.28666296E+00  3.16392696E+00  7.86827235E+00
  1.88128854E+00  5.44249258E-01  1.68714478E-01  8.00000000E-01  3.04752488E+03
  4.57369518E+02  1.03948685E+02  2.92101553E+01  9.28666296E+00  3.16392696E+00
  7.86827235E+00  1.88128854E+00  5.44249258E-01  1.68714478E-01  8.00000000E-01
  1.87311370E+01  2.82539436E+00  6.40121692E-01  1.61277759E-01  3.04752488E+03
  4.57369518E+02  1.03948685E+02  2.92101553E+01  9.28666296E+00  3.16392696E+00
  7.86827235E+00  1.88128854E+00  5.44249258E-01  1.68714478E-01  8.00000000E-01
  1.87311370E+01  2.82539436E+00  6.40121692E-01  1.61277759E-01  3.04752488E+03
  4.57369518E+02  1.03948685E+02  2.92101553E+01  9.28666296E+00  3.16392696E+00
  7.86827235E+00  1.88128854E+00  5.44249258E-01  1.68714478E-01  8.00000000E-01
  1.87311370E+01  2.82539436E+00  6.40121692E-01  1.61277759E-01  1.87311370E+01
  2.82539436E+00  6.40121692E-01  1.61277759E-01  1.87311370E+01  2.82539436E+00
  6.40121692E-01  1.61277759E-01
Contraction coefficients                   R   N=         157
  1.83473713E-03  1.40373228E-02  6.88426223E-02  2.32184443E-01  4.67941348E-01
  3.62311985E-01 -1.19332420E-01 -1.60854152E-01  1.14345644E+00  1.00000000E+00
  1.00000000E+00  1.83473713E-03  1.40373228E-02  6.88426223E-02  2.32184443E-01
  4.67941348E-01  3.62311985E-01 -1.19332420E-01 -1.60854152E-01  1.14345644E+00
  1.00000000E+00  1.00000000E+00  1.83473713E-03  1.40373228E-02  6.88426223E-02
  2.32184443E-01  4.67941348E-01  3.62311985E-01 -1.19332420E-01 -1.60854152E-01
  1.14345644E+00  1.00000000E+00  1.00000000E+00  1.83473713E-03  1.40373228E-02
  6.88426223E-02  2.32184443E-01  4.67941348E-01  3.62311985E-01 -1.19332420E-01
 -1.60854152E-01  1.14345644E+00  1.00000000E+00  1.00000000E+00  1.83477216E-03
  1.39946270E-02  6.85865518E-02  2.32240873E-01  4.69069948E-01  3.60455199E-01
 -1.14961182E-01 -1.69117479E-01  1.14585195E+00  1.00000000E+00  1.00000000E+00
  3.34946043E-02  2.34726953E-01  8.13757326E-01  1.00000000E+00  3.34946043E-02
  2.34726953E-01  8.13757326E-01  1.00000000E+00  3.34946043E-02  2.34726953E-01
  8.13757326E-01  1.00000000E+00  3.34946043E-02  2.34726953E-01  8.13757326E-01
  1.00000000E+00  1.83473713E-03  1.40373228E-02  6.88426223E-02  2.32184443E-01
  4.67941348E-01  3.62311985E-01 -1.19332420E-01 -1.60854152E-01  1.14345644E+00
  1.00000000E+00  1.00000000E+00  1.83473713E-03  1.40373228E-02  6.88426223E-02
  2.32184443E-01  4.67941348E-01  3.62311985E-01 -1.19332420E-01 -1.60854152E-01
  1.14345644E+00  1.00000000E+00  1.00000000E+00  1.83473713E-03  1.40373228E-02
  6.88426223E-02  2.32184443E-01  4.67941348E-01  3.62311985E-01 -1.19332420E-01
 -1.60854152E-01  1.14345644E+00  1.00000000E+00  1.00000000E+00  1.83473713E-03
  1.40373228E-02  6.88426223E-02  2.32184443E-01  4.67941348E-01  3.62311985E-01
 -1.19332420E-01 -1.60854152E-01  1.14345644E+00  1.00000000E+00  1.00000000E+00
  3.34946043E-02  2.34726953E-01  8.13757326E-01  1.00000000E+00  1.83473713E-03
  1.40373228E-02  6.88426223E-02  2.32184443E-01  4.67941348E-01  3.62311985E-01
 -1.19332420E-01 -1.60854152E-01  1.14345644E+00  1.00000000E+00  1.00000000E+00
  3.34946043E-02  2.34726953E-01  8.13757326E-01  1.00000000E+00  1.83473713E-03
  1.40373228E-02  6.88426223E-02  2.32184443E-01  4.67941348E-01  3.62311985E-01
 -1.19332420E-01 -1.60854152E-01  1.14345644E+00  1.00000000E+00  1.00000000E+00
  3.34946043E-02  2.34726953E-01  8.13757326E-01  1.00000000E+00  3.34946043E-02
  2.34726953E-01  8.13757326E-01  1.00000000E+00  3.34946043E-02  2.34726953E-01
  8.13757326E-01  1.00000000E+00
P(S=P) Contraction coefficients            R   N=         157
  0.00000000E+00  0.00000000E+00  0.00000000E+00  0.00000000E+00  0.00000000E+00
  0.00000000E+00  6.89990666E-02  3.16423961E-01  7.44308291E-01  1.00000000E+00
  0.00000000E+00  0.00000000E+00  0.00000000E+00  0.00000000E+00  0.00000000E+00
  0.00000000E+00  0.00000000E+00  6.89990666E-02  3.16423961E-01  7.44308291E-01
  1.00000000E+00  0.00000000E+00  0.00000000E+00  0.00000000E+00  0.00000000E+00
  0.00000000E+00  0.00000000E+00  0.00000000E+00  6.89990666E-02  3.16423961E-01
  7.44308291E-01  1.00000000E+00  0.00000000E+00  0.00000000E+00  0.00000000E+00
  0.00000000E+00  0.00000000E+00  0.00000000E+00  0.00000000E+00  6.89990666E-02
  3.16423961E-01  7.44308291E-01  1.00000000E+00  0.00000000E+00  0.00000000E+00
  0.00000000E+00  0.00000000E+00  0.00000000E+00  0.00000000E+00  0.00000000E+00
  6.75797439E-02  3.23907296E-01  7.40895140E-01  1.00000000E+00  0.00000000E+00
  0.00000000E+00  0.00000000E+00  0.00000000E+00  0.00000000E+00  0.00000000E+00
  0.00000000E+00  0.00000000E+00  0.00000000E+00  0.00000000E+00  0.00000000E+00
  0.00000000E+00  0.00000000E+00  0.00000000E+00  0.00000000E+00  0.00000000E+00
  0.00000000E+00  0.00000000E+00  0.00000000E+00  0.00000000E+00  0.00000000E+00
  0.00000000E+00  0.00000000E+00  6.89990666E-02  3.16423961E-01  7.44308291E-01
  1.00000000E+00  0.00000000E+00  0.00000000E+00  0.00000000E+00  0.00000000E+00
  0.00000000E+00  0.00000000E+00  0.00000000E+00  6.89990666E-02  3.16423961E-01
  7.44308291E-01  1.00000000E+00  0.00000000E+00  0.00000000E+00  0.00000000E+00
  0.00000000E+00  0.00000000E+00  0.00000000E+00  0.00000000E+00  6.89990666E-02
  3.16423961E-01  7.44308291E-01  1.00000000E+00  0.00000000E+00  0.00000000E+00
  0.00000000E+00  0.00000000E+00  0.00000000E+00  0.00000000E+00  0.00000000E+00
  6.89990666E-02  3.16423961E-01  7.44308291E-01  1.00000000E+00  0.00000000E+00
  0.00000000E+00  0.00000000E+00  0.00000000E+00  0.00000000E+00  0.00000000E+00
  0.00000000E+00  0.00000000E+00  0.00000000E+00  0.00000000E+00  0.00000000E+00
  6.89990666E-02  3.16423961E-01  7.44308291E-01  1.00000000E+00  0.00000000E+00
  0.00000000E+00  0.00000000E+00  0.00000000E+00  0.00000000E+00  0.00000000E+00
  0.00000000E+00  0.00000000E+00  0.00000000E+00  0.00000000E+00  0.00000000E+00
  6.89990666E-02  3.16423961E-01  7.44308291E-01  1.00000000E+00  0.00000000E+00
  0.00000000E+00  0.00000000E+00  0.00000000E+00  0.00000000E+00  0.00000000E+00
  0.00000000E+00  0.00000000E+00  0.00000000E+00  0.00000000E+00  0.00000000E+00
  0.00000000E+00  0.00000000E+00
Coordinates of each shell                  R   N=         186
  0.00000000E+00  2.11957178E+00  3.44890009E+00  0.00000000E+00  2.11957178E+00
  3.44890009E+00  0.00000000E+00  2.11957178E+00  3.44890009E+00  0.00000000E+00
  2.11957178E+00  3.44890009E+00  0.00000000E+00  1.34756382E+00  5.92348720E+00
  0.00000000E+00  1.34756382E+00  5.92348720E+00  0.00000000E+00  1.34756382E+00
  5.92348720E+00  0.00000000E+00  1.34756382E+00  5.92348720E+00 -1.65023521E-16
 -1.34756382E+00  5.92348720E+00 -1.65023521E-16 -1.34756382E+00  5.92348720E+00
 -1.65023521E-16 -1.34756382E+00  5.92348720E+00 -1.65023521E-16 -1.34756382E+00
  5.92348720E+00 -2.59564107E-16 -2.11957178E+00  3.44890009E+00 -2.59564107E-16
 -2.11957178E+00  3.44890009E+00 -2.59564107E-16 -2.11957178E+00  3.44890009E+00
 -2.59564107E-16 -2.11957178E+00  3.44890009E+00  0.00000000E+00  0.00000000E+00
  1.90158086E+00  0.00000000E+00  0.00000000E+00  1.90158086E+00  0.00000000E+00
  0.00000000E+00  1.90158086E+00  0.00000000E+00  0.00000000E+00  1.90158086E+00
  0.00000000E+00  4.00284465E+00  2.67519702E+00  0.00000000E+00  4.00284465E+00
  2.67519702E+00  0.00000000E+00  2.58102784E+00  7.55338177E+00  0.00000000E+00
  2.58102784E+00  7.55338177E+00 -3.16074310E-16 -2.58102784E+00  7.55338177E+00
 -3.16074310E-16 -2.58102784E+00  7.55338177E+00 -4.90190900E-16 -4.00284465E+00
  2.67519702E+00 -4.90190900E-16 -4.00284465E+00  2.67519702E+00  0.00000000E+00
  0.00000000E+00 -7.80218499E-01  0.00000000E+00  0.00000000E+00 -7.80218499E-01
  0.00000000E+00  0.00000000E+00 -7.80218499E-01  0.00000000E+00  0.00000000E+00
 -7.80218499E-01  0.00000000E+00 -2.27950310E+00 -2.13646559E+00  0.00000000E+00
 -2.27950310E+00 -2.13646559E+00  0.00000000E+00 -2.27950310E+00 -2.13646559E+00
  0.00000000E+00 -2.27950310E+00 -2.13646559E+00  2.79149399E-16  2.27950310E+00
 -2.13646559E+00  2.79149399E-16  2.27950310E+00 -2.13646559E+00  2.79149399E-16
  2.27950310E+00 -2.13646559E+00  2.79149399E-16  2.27950310E+00 -2.13646559E+00
  0.00000000E+00 -2.26846144E+00 -4.76943067E+00  0.00000000E+00 -2.26846144E+00
 -4.76943067E+00  0.00000000E+00 -2.26846144E+00 -4.76943067E+00  0.00000000E+00
 -2.26846144E+00 -4.76943067E+00  0.00000000E+00 -4.07658933E+00 -1.15624758E+00
  0.00000000E+00 -4.07658933E+00 -1.15624758E+00  2.77797229E-16  2.26846144E+00
 -4.76943067E+00  2.77797229E-16  2.26846144E+00 -4.76943067E+00  2.77797229E-16
  2.26846144E+00 -4.76943067E+00  2.77797229E-16  2.26846144E+00 -4.76943067E+00
  4.99221719E-16  4.07658933E+00 -1.15624758E+00  4.99221719E-16  4.07658933E+00
 -1.15624758E+00  0.00000000E+00  0.00000000E+00 -6.11102860E+00  0.00000000E+00
  0.00000000E+00 -6.11102860E+00  0.00000000E+00  0.00000000E+00 -6.11102860E+00
  0.00000000E+00  0.00000000E+00 -6.11102860E+00  0.00000000E+00 -4.06095184E+00
 -5.77149204E+00  0.00000000E+00 -4.06095184E+00 -5.77149204E+00  4.97306743E-16
  4.06095184E+00 -5.77149204E+00  4.97306743E-16  4.06095184E+00 -5.77149204E+00
  0.00000000E+00  0.00000000E+00 -8.16315419E+00  0.00000000E+00  0.00000000E+00
 -8.16315419E+00
Constraint Structure                       R   N=          60
  0.00000000E+00  2.11957178E+00  3.44890009E+00  0.00000000E+00  1.34756382E+00
  5.92348720E+00 -1.65023521E-16 -1.34756382E+00  5.92348720E+00 -2.59564107E-16
 -2.11957178E+00  3.44890009E+00  0.00000000E+00  0.00000000E+00  1.90158086E+00
  0.00000000E+00  4.00284465E+00  2.67519702E+00  0.00000000E+00  2.58102784E+00
  7.55338177E+00 -3.16074310E-16 -2.58102784E+00  7.55338177E+00 -4.90190900E-16
 -4.00284465E+00  2.67519702E+00  0.00000000E+00  0.00000000E+00 -7.80218499E-01
  0.00000000E+00 -2.27950310E+00 -2.13646559E+00  2.79149399E-16  2.27950310E+00
 -2.13646559E+00  0.00000000E+00 -2.26846144E+00 -4.76943067E+00  0.00000000E+00
 -4.07658933E+00 -1.15624758E+00  2.77797229E-16  2.26846144E+00 -4.76943067E+00
  4.99221719E-16  4.07658933E+00 -1.15624758E+00  0.00000000E+00  0.00000000E+00
 -6.11102860E+00  0.00000000E+00 -4.06095184E+00 -5.77149204E+00  4.97306743E-16
  4.06095184E+00 -5.77149204E+00  0.00000000E+00  0.00000000E+00 -8.16315419E+00
Num ILSW                                   I              100
ILSW                                       I   N=         100
           0           1           0           0           2           0
           0           0           0           0         402          -1
           0           0           0           0           0           0
           0           0           0           0           0           0
           1           0           0           0           0           0
           0           0      100000           0          -1           0
           0           0           0           0           0           0
           0           0           0           1           0           0
           0           0           1           0           0           0
           0           0           4          40           0           0
           0           0           5           0           0           0
           0           0           0           0           0           0
           0           0           0           0           0           0
           0           0           0           0           0           0
           0           0           0           0           0           0
           0           0           0           0           0           0
           0           0           0           0
Num RLSW                                   I               40
RLSW                                       R   N=          40
  8.00000000E-01  7.20000000E-01  1.00000000E+00  8.10000000E-01  2.00000000E-01
  0.00000000E+00  0.00000000E+00  1.00000000E+00  0.00000000E+00  0.00000000E+00
  0.00000000E+00  0.00000000E+00  1.00000000E+00  0.00000000E+00  0.00000000E+00
  0.00000000E+00  0.00000000E+00  1.00000000E+00  0.00000000E+00  0.00000000E+00
  0.00000000E+00  0.00000000E+00  1.00000000E+00  0.00000000E+00  0.00000000E+00
  0.00000000E+00  0.00000000E+00  1.00000000E+00  0.00000000E+00  0.00000000E+00
  0.00000000E+00  0.00000000E+00  1.00000000E+00  0.00000000E+00  0.00000000E+00
  0.00000000E+00  0.00000000E+00  0.00000000E+00  1.00000000E+00  1.00000000E+00
MxBond                                     I                3
NBond                                      I   N=          20
           3           3           3           3           3           1
           1           1           1           3           3           3
           3           1           3           1           3           1
           1           1
IBond                                      I   N=          60
           2           5           6           1           3           7
           2           4           8           3           5           9
           1           4          10           1           0           0
           2           0           0           3           0           0
           4           0           0           5          11          12
          10          13          14          10          15          16
          11          17          18          11           0           0
          12          17          19          12           0           0
          13          15          20          13           0           0
          15           0           0          17           0           0
RBond                                      R   N=          60
  1.50000000E+00  1.00000000E+00  1.00000000E+00  1.50000000E+00  1.50000000E+00
  1.00000000E+00  1.50000000E+00  1.50000000E+00  1.00000000E+00  1.50000000E+00
  1.00000000E+00  1.00000000E+00  1.00000000E+00  1.00000000E+00  1.00000000E+00
  1.00000000E+00  0.00000000E+00  0.00000000E+00  1.00000000E+00  0.00000000E+00
  0.00000000E+00  1.00000000E+00  0.00000000E+00  0.00000000E+00  1.00000000E+00
  0.00000000E+00  0.00000000E+00  1.00000000E+00  1.50000000E+00  1.50000000E+00
  1.50000000E+00  1.50000000E+00  1.00000000E+00  1.50000000E+00  1.50000000E+00
  1.00000000E+00  1.50000000E+00  1.50000000E+00  1.00000000E+00  1.00000000E+00
  0.00000000E+00  0.00000000E+00  1.50000000E+00  1.50000000E+00  1.00000000E+00
  1.00000000E+00  0.00000000E+00  0.00000000E+00  1.50000000E+00  1.50000000E+00
  1.00000000E+00  1.00000000E+00  0.00000000E+00  0.00000000E+00  1.00000000E+00
  0.00000000E+00  0.00000000E+00  1.00000000E+00  0.00000000E+00  0.00000000E+00
Virial Ratio                               R      2.009864949530799E+00
SCF Energy                                 R     -4.412166381315050E+02
Total Energy                               R     -4.412166381315050E+02
RMS Density                                R      4.644142468401500E-09
External E-field                           R   N=          35
  0.00000000E+00  0.00000000E+00  0.00000000E+00  0.00000000E+00  0.00000000E+00
  0.00000000E+00  0.00000000E+00  0.00000000E+00  0.00000000E+00  0.00000000E+00
  0.00000000E+00  0.00000000E+00  0.00000000E+00  0.00000000E+00  0.00000000E+00
  0.00000000E+00  0.00000000E+00  0.00000000E+00  0.00000000E+00  0.00000000E+00
  0.00000000E+00  0.00000000E+00  0.00000000E+00  0.00000000E+00  0.00000000E+00
  0.00000000E+00  0.00000000E+00  0.00000000E+00  0.00000000E+00  0.00000000E+00
  0.00000000E+00  0.00000000E+00  0.00000000E+00  0.00000000E+00  0.00000000E+00
IOpCl                                      I                0
IROHF                                      I                0
Alpha Orbital Energies                     R   N=         183
 -1.43901745E+01 -1.02418374E+01 -1.02024681E+01 -1.02024531E+01 -1.01961676E+01
 -1.01961514E+01 -1.01953663E+01 -1.01953598E+01 -1.01901547E+01 -1.01701668E+01
 -1.01697275E+01 -9.85462532E-01 -8.60351104E-01 -7.96471146E-01 -7.54399356E-01
 -7.24751873E-01 -7.18245918E-01 -6.23606595E-01 -6.16316846E-01 -5.58295418E-01
 -5.58208598E-01 -5.49819009E-01 -4.98243020E-01 -4.57639126E-01 -4.57599352E-01
 -4.31749493E-01 -4.27222648E-01 -4.23918993E-01 -4.14768195E-01 -3.84775312E-01
 -3.74051044E-01 -3.62308945E-01 -3.61533014E-01 -3.47575613E-01 -2.81017581E-01
 -2.56501784E-01 -2.13464014E-01 -2.10242790E-01 -1.51076276E-02 -5.98632614E-03
  5.80327750E-02  8.10672321E-02  9.01896622E-02  1.14786287E-01  1.15520627E-01
  1.43060016E-01  1.58591848E-01  1.68278675E-01  1.74612857E-01  1.74936833E-01
  2.00096607E-01  2.17687036E-01  2.23813716E-01  2.42422311E-01  2.53796791E-01
  2.94053970E-01  3.13895252E-01  3.30008966E-01  3.51439212E-01  3.85305182E-01
  4.01195120E-01  4.55766480E-01  5.03304932E-01  5.06700678E-01  5.39225302E-01
  5.41700106E-01  5.46817687E-01  5.47135371E-01  5.65729606E-01  5.66769333E-01
  5.87085855E-01  5.91480493E-01  5.95644552E-01  5.98631613E-01  6.07122769E-01
  6.08902129E-01  6.09080175E-01  6.14332209E-01  6.17583362E-01  6.43035119E-01
  6.43104829E-01  6.52974772E-01  6.97366665E-01  7.28399931E-01  7.58396914E-01
  7.76308711E-01  8.05008020E-01  8.37377586E-01  8.38513060E-01  8.49952173E-01
  8.62940127E-01  8.75905443E-01  8.76873440E-01  8.79198415E-01  9.12658860E-01
  9.15533648E-01  9.39698613E-01  9.50228808E-01  9.58500761E-01  9.77018695E-01
  1.01855443E+00  1.03017192E+00  1.09343299E+00  1.09572865E+00  1.13217097E+00
  1.15062997E+00  1.18108007E+00  1.20924324E+00  1.24216265E+00  1.24281910E+00
  1.24430234E+00  1.25715534E+00  1.36177640E+00  1.38621254E+00  1.41354319E+00
  1.42677132E+00  1.45112287E+00  1.46476736E+00  1.47585409E+00  1.47935498E+00
  1.48519628E+00  1.50879790E+00  1.55171016E+00  1.56062718E+00  1.62389558E+00
  1.63862737E+00  1.72381399E+00  1.80595746E+00  1.81199124E+00  1.83507721E+00
  1.86578817E+00  1.88474327E+00  1.93476521E+00  1.95588511E+00  1.97521844E+00
  1.98622841E+00  2.02580981E+00  2.06433644E+00  2.10341071E+00  2.12238509E+00
  2.12252257E+00  2.12656233E+00  2.13180529E+00  2.17680675E+00  2.18037323E+00
  2.23177602E+00  2.24950364E+00  2.27189826E+00  2.27695925E+00  2.29592192E+00
  2.30652687E+00  2.33500573E+00  2.35180167E+00  2.50556557E+00  2.54093514E+00
  2.54590040E+00  2.54767344E+00  2.59222067E+00  2.66021406E+00  2.66484610E+00
  2.68442817E+00  2.70143059E+00  2.72817423E+00  2.75660671E+00  2.76128687E+00
  2.82634077E+00  2.84990278E+00  2.93965842E+00  3.05898962E+00  3.11614428E+00
  3.27430139E+00  3.42700527E+00  4.07411780E+00  4.09875071E+00  4.11046671E+00
  4.12396107E+00  4.16770979E+00  4.19929760E+00  4.32565316E+00  4.35079560E+00