B3LYP/6-31G* opted                                                      
SP        RCAM-B3LYP                                                  6-31+G(d)           
Number of atoms                            I               20
Info1-9                                    I   N=           9
          28          27           0           0           0         110
           1          18           2
Charge                                     I                0
Multiplicity                               I                1
Number of electrons                        I               76
Number of alpha electrons                  I               38
Number of beta electrons                   I               38
Number of basis functions                  I              227
Number of independent functions            I              227
Number of point charges in /Mol/           I                0
Number of translation vectors              I                0
Atomic numbers                             I   N=          20
           6           6           6           6           7           1
           1           1           1           6           6           6
           6           1           6           1           6           1
           1           1
Nuclear charges                            R   N=          20
  6.00000000E+00  6.00000000E+00  6.00000000E+00  6.00000000E+00  7.00000000E+00
  1.00000000E+00  1.00000000E+00  1.00000000E+00  1.00000000E+00  6.00000000E+00
  6.00000000E+00  6.00000000E+00  6.00000000E+00  1.00000000E+00  6.00000000E+00
  1.00000000E+00  6.00000000E+00  1.00000000E+00  1.00000000E+00  1.00000000E+00
Current cartesian coordinates              R   N=          60
 -7.43962374E-16  2.11957163E+00  3.44889948E+00 -1.15829963E-15  1.34756371E+00
  5.92348640E+00 -1.18290573E-15 -1.34756371E+00  5.92348640E+00 -7.82665108E-16
 -2.11957163E+00  3.44889948E+00 -3.49303177E-16  2.60222867E-48  1.90158038E+00
 -6.99959523E-16  4.00284435E+00  2.67519647E+00 -1.52196055E-15  2.58102764E+00
  7.55338086E+00 -1.56908933E-15 -2.58102764E+00  7.55338086E+00 -7.73050245E-16
 -4.00284435E+00  2.67519647E+00  1.43319069E-16 -1.06769424E-48 -7.80218787E-01
  5.11212545E-16 -2.27950293E+00 -2.13646578E+00  5.52835577E-16  2.27950293E+00
 -2.13646578E+00  9.94289096E-16 -2.26846126E+00 -4.76943065E+00  4.24784404E-16
 -4.07658902E+00 -1.15624783E+00  1.03571051E-15  2.26846126E+00 -4.76943065E+00
  4.99221682E-16  4.07658902E+00 -1.15624783E+00  1.12254058E-15 -8.36267027E-48
 -6.11102849E+00  1.27174828E-15 -4.06095154E+00 -5.77149195E+00  1.34590002E-15
  4.06095154E+00 -5.77149195E+00  1.49949746E-15 -1.11709126E-47 -8.16315391E+00
Force Field                                I                0
Int Atom Types                             I   N=          20
           0           0           0           0           0           0
           0           0           0           0           0           0
           0           0           0           0           0           0
           0           0
MM charges                                 R   N=          20
  0.00000000E+00  0.00000000E+00  0.00000000E+00  0.00000000E+00  0.00000000E+00
  0.00000000E+00  0.00000000E+00  0.00000000E+00  0.00000000E+00  0.00000000E+00
  0.00000000E+00  0.00000000E+00  0.00000000E+00  0.00000000E+00  0.00000000E+00
  0.00000000E+00  0.00000000E+00  0.00000000E+00  0.00000000E+00  0.00000000E+00
Integer atomic weights                     I   N=          20
          12          12          12          12          14           1
           1           1           1          12          12          12
          12           1          12           1          12           1
           1           1
Real atomic weights                        R   N=          20
  1.20000000E+01  1.20000000E+01  1.20000000E+01  1.20000000E+01  1.40030740E+01
  1.00782504E+00  1.00782504E+00  1.00782504E+00  1.00782504E+00  1.20000000E+01
  1.20000000E+01  1.20000000E+01  1.20000000E+01  1.00782504E+00  1.20000000E+01
  1.00782504E+00  1.20000000E+01  1.00782504E+00  1.00782504E+00  1.00782504E+00
Atom fragment info                         I   N=          20
           0           0           0           0           0           0
           0           0           0           0           0           0
           0           0           0           0           0           0
           0           0
Atom residue num                           I   N=          20
           0           0           0           0           0           0
           0           0           0           0           0           0
           0           0           0           0           0           0
           0           0
Nuclear spins                              I   N=          20
           0           0           0           0           2           1
           1           1           1           0           0           0
           0           1           0           1           0           1
           1           1
Nuclear ZEff                               R   N=          20
 -3.60000000E+00 -3.60000000E+00 -3.60000000E+00 -3.60000000E+00 -4.55000000E+00
 -1.00000000E+00 -1.00000000E+00 -1.00000000E+00 -1.00000000E+00 -3.60000000E+00
 -3.60000000E+00 -3.60000000E+00 -3.60000000E+00 -1.00000000E+00 -3.60000000E+00
 -1.00000000E+00 -3.60000000E+00 -1.00000000E+00 -1.00000000E+00 -1.00000000E+00
Nuclear QMom                               R   N=          20
  0.00000000E+00  0.00000000E+00  0.00000000E+00  0.00000000E+00  2.04400000E+00
  0.00000000E+00  0.00000000E+00  0.00000000E+00  0.00000000E+00  0.00000000E+00
  0.00000000E+00  0.00000000E+00  0.00000000E+00  0.00000000E+00  0.00000000E+00
  0.00000000E+00  0.00000000E+00  0.00000000E+00  0.00000000E+00  0.00000000E+00
Nuclear GFac                               R   N=          20
  0.00000000E+00  0.00000000E+00  0.00000000E+00  0.00000000E+00  4.03761000E-01
  2.79284600E+00  2.79284600E+00  2.79284600E+00  2.79284600E+00  0.00000000E+00
  0.00000000E+00  0.00000000E+00  0.00000000E+00  2.79284600E+00  0.00000000E+00
  2.79284600E+00  0.00000000E+00  2.79284600E+00  2.79284600E+00  2.79284600E+00
MicOpt                                     I   N=          20
          -1          -1          -1          -1          -1          -1
          -1          -1          -1          -1          -1          -1
          -1          -1          -1          -1          -1          -1
          -1          -1
Number of contracted shells                I               73
Number of primitive shells                 I              168
Pure/Cartesian d shells                    I                1
Pure/Cartesian f shells                    I                0
Highest angular momentum                   I                2
Largest degree of contraction              I                6
Shell types                                I   N=          73
           0          -1          -1          -1           2           0
          -1          -1          -1           2           0          -1
          -1          -1           2           0          -1          -1
          -1           2           0          -1          -1          -1
           2           0           0           0           0           0
           0           0           0           0          -1          -1
          -1           2           0          -1          -1          -1
           2           0          -1          -1          -1           2
           0          -1          -1          -1           2           0
           0           0          -1          -1          -1           2
           0           0           0          -1          -1          -1
           2           0           0           0           0           0
           0
Number of primitives per shell             I   N=          73
           6           3           1           1           1           6
           3           1           1           1           6           3
           1           1           1           6           3           1
           1           1           6           3           1           1
           1           3           1           3           1           3
           1           3           1           6           3           1
           1           1           6           3           1           1
           1           6           3           1           1           1
           6           3           1           1           1           3
           1           6           3           1           1           1
           3           1           6           3           1           1
           1           3           1           3           1           3
           1
Shell to atom map                          I   N=          73
           1           1           1           1           1           2
           2           2           2           2           3           3
           3           3           3           4           4           4
           4           4           5           5           5           5
           5           6           6           7           7           8
           8           9           9          10          10          10
          10          10          11          11          11          11
          11          12          12          12          12          12
          13          13          13          13          13          14
          14          15          15          15          15          15
          16          16          17          17          17          17
          17          18          18          19          19          20
          20
Primitive exponents                        R   N=         168
  3.04752488E+03  4.57369518E+02  1.03948685E+02  2.92101553E+01  9.28666296E+00
  3.16392696E+00  7.86827235E+00  1.88128854E+00  5.44249258E-01  1.68714478E-01
  4.38000000E-02  8.00000000E-01  3.04752488E+03  4.57369518E+02  1.03948685E+02
  2.92101553E+01  9.28666296E+00  3.16392696E+00  7.86827235E+00  1.88128854E+00
  5.44249258E-01  1.68714478E-01  4.38000000E-02  8.00000000E-01  3.04752488E+03
  4.57369518E+02  1.03948685E+02  2.92101553E+01  9.28666296E+00  3.16392696E+00
  7.86827235E+00  1.88128854E+00  5.44249258E-01  1.68714478E-01  4.38000000E-02
  8.00000000E-01  3.04752488E+03  4.57369518E+02  1.03948685E+02  2.92101553E+01
  9.28666296E+00  3.16392696E+00  7.86827235E+00  1.88128854E+00  5.44249258E-01
  1.68714478E-01  4.38000000E-02  8.00000000E-01  4.17351146E+03  6.27457911E+02
  1.42902093E+02  4.02343293E+01  1.28202129E+01  4.39043701E+00  1.16263619E+01
  2.71627981E+00  7.72218397E-01  2.12031498E-01  6.39000000E-02  8.00000000E-01
  1.87311370E+01  2.82539436E+00  6.40121692E-01  1.61277759E-01  1.87311370E+01
  2.82539436E+00  6.40121692E-01  1.61277759E-01  1.87311370E+01  2.82539436E+00
  6.40121692E-01  1.61277759E-01  1.87311370E+01  2.82539436E+00  6.40121692E-01
  1.61277759E-01  3.04752488E+03  4.57369518E+02  1.03948685E+02  2.92101553E+01
  9.28666296E+00  3.16392696E+00  7.86827235E+00  1.88128854E+00  5.44249258E-01
  1.68714478E-01  4.38000000E-02  8.00000000E-01  3.04752488E+03  4.57369518E+02
  1.03948685E+02  2.92101553E+01  9.28666296E+00  3.16392696E+00  7.86827235E+00
  1.88128854E+00  5.44249258E-01  1.68714478E-01  4.38000000E-02  8.00000000E-01
  3.04752488E+03  4.57369518E+02  1.03948685E+02  2.92101553E+01  9.28666296E+00
  3.16392696E+00  7.86827235E+00  1.88128854E+00  5.44249258E-01  1.68714478E-01
  4.38000000E-02  8.00000000E-01  3.04752488E+03  4.57369518E+02  1.03948685E+02
  2.92101553E+01  9.28666296E+00  3.16392696E+00  7.86827235E+00  1.88128854E+00
  5.44249258E-01  1.68714478E-01  4.38000000E-02  8.00000000E-01  1.87311370E+01
  2.82539436E+00  6.40121692E-01  1.61277759E-01  3.04752488E+03  4.57369518E+02
  1.03948685E+02  2.92101553E+01  9.28666296E+00  3.16392696E+00  7.86827235E+00
  1.88128854E+00  5.44249258E-01  1.68714478E-01  4.38000000E-02  8.00000000E-01
  1.87311370E+01  2.82539436E+00  6.40121692E-01  1.61277759E-01  3.04752488E+03
  4.57369518E+02  1.03948685E+02  2.92101553E+01  9.28666296E+00  3.16392696E+00
  7.86827235E+00  1.88128854E+00  5.44249258E-01  1.68714478E-01  4.38000000E-02
  8.00000000E-01  1.87311370E+01  2.82539436E+00  6.40121692E-01  1.61277759E-01
  1.87311370E+01  2.82539436E+00  6.40121692E-01  1.61277759E-01  1.87311370E+01
  2.82539436E+00  6.40121692E-01  1.61277759E-01
Contraction coefficients                   R   N=         168
  1.83473713E-03  1.40373228E-02  6.88426223E-02  2.32184443E-01  4.67941348E-01
  3.62311985E-01 -1.19332420E-01 -1.60854152E-01  1.14345644E+00  1.00000000E+00
  1.00000000E+00  1.00000000E+00  1.83473713E-03  1.40373228E-02  6.88426223E-02
  2.32184443E-01  4.67941348E-01  3.62311985E-01 -1.19332420E-01 -1.60854152E-01
  1.14345644E+00  1.00000000E+00  1.00000000E+00  1.00000000E+00  1.83473713E-03
  1.40373228E-02  6.88426223E-02  2.32184443E-01  4.67941348E-01  3.62311985E-01
 -1.19332420E-01 -1.60854152E-01  1.14345644E+00  1.00000000E+00  1.00000000E+00
  1.00000000E+00  1.83473713E-03  1.40373228E-02  6.88426223E-02  2.32184443E-01
  4.67941348E-01  3.62311985E-01 -1.19332420E-01 -1.60854152E-01  1.14345644E+00
  1.00000000E+00  1.00000000E+00  1.00000000E+00  1.83477216E-03  1.39946270E-02
  6.85865518E-02  2.32240873E-01  4.69069948E-01  3.60455199E-01 -1.14961182E-01
 -1.69117479E-01  1.14585195E+00  1.00000000E+00  1.00000000E+00  1.00000000E+00
  3.34946043E-02  2.34726953E-01  8.13757326E-01  1.00000000E+00  3.34946043E-02
  2.34726953E-01  8.13757326E-01  1.00000000E+00  3.34946043E-02  2.34726953E-01
  8.13757326E-01  1.00000000E+00  3.34946043E-02  2.34726953E-01  8.13757326E-01
  1.00000000E+00  1.83473713E-03  1.40373228E-02  6.88426223E-02  2.32184443E-01
  4.67941348E-01  3.62311985E-01 -1.19332420E-01 -1.60854152E-01  1.14345644E+00
  1.00000000E+00  1.00000000E+00  1.00000000E+00  1.83473713E-03  1.40373228E-02
  6.88426223E-02  2.32184443E-01  4.67941348E-01  3.62311985E-01 -1.19332420E-01
 -1.60854152E-01  1.14345644E+00  1.00000000E+00  1.00000000E+00  1.00000000E+00
  1.83473713E-03  1.40373228E-02  6.88426223E-02  2.32184443E-01  4.67941348E-01
  3.62311985E-01 -1.19332420E-01 -1.60854152E-01  1.14345644E+00  1.00000000E+00
  1.00000000E+00  1.00000000E+00  1.83473713E-03  1.40373228E-02  6.88426223E-02
  2.32184443E-01  4.67941348E-01  3.62311985E-01 -1.19332420E-01 -1.60854152E-01
  1.14345644E+00  1.00000000E+00  1.00000000E+00  1.00000000E+00  3.34946043E-02
  2.34726953E-01  8.13757326E-01  1.00000000E+00  1.83473713E-03  1.40373228E-02
  6.88426223E-02  2.32184443E-01  4.67941348E-01  3.62311985E-01 -1.19332420E-01
 -1.60854152E-01  1.14345644E+00  1.00000000E+00  1.00000000E+00  1.00000000E+00
  3.34946043E-02  2.34726953E-01  8.13757326E-01  1.00000000E+00  1.83473713E-03
  1.40373228E-02  6.88426223E-02  2.32184443E-01  4.67941348E-01  3.62311985E-01
 -1.19332420E-01 -1.60854152E-01  1.14345644E+00  1.00000000E+00  1.00000000E+00
  1.00000000E+00  3.34946043E-02  2.34726953E-01  8.13757326E-01  1.00000000E+00
  3.34946043E-02  2.34726953E-01  8.13757326E-01  1.00000000E+00  3.34946043E-02
  2.34726953E-01  8.13757326E-01  1.00000000E+00
P(S=P) Contraction coefficients            R   N=         168
  0.00000000E+00  0.00000000E+00  0.00000000E+00  0.00000000E+00  0.00000000E+00
  0.00000000E+00  6.89990666E-02  3.16423961E-01  7.44308291E-01  1.00000000E+00
  1.00000000E+00  0.00000000E+00  0.00000000E+00  0.00000000E+00  0.00000000E+00
  0.00000000E+00  0.00000000E+00  0.00000000E+00  6.89990666E-02  3.16423961E-01
  7.44308291E-01  1.00000000E+00  1.00000000E+00  0.00000000E+00  0.00000000E+00
  0.00000000E+00  0.00000000E+00  0.00000000E+00  0.00000000E+00  0.00000000E+00
  6.89990666E-02  3.16423961E-01  7.44308291E-01  1.00000000E+00  1.00000000E+00
  0.00000000E+00  0.00000000E+00  0.00000000E+00  0.00000000E+00  0.00000000E+00
  0.00000000E+00  0.00000000E+00  6.89990666E-02  3.16423961E-01  7.44308291E-01
  1.00000000E+00  1.00000000E+00  0.00000000E+00  0.00000000E+00  0.00000000E+00
  0.00000000E+00  0.00000000E+00  0.00000000E+00  0.00000000E+00  6.75797439E-02
  3.23907296E-01  7.40895140E-01  1.00000000E+00  1.00000000E+00  0.00000000E+00
  0.00000000E+00  0.00000000E+00  0.00000000E+00  0.00000000E+00  0.00000000E+00
  0.00000000E+00  0.00000000E+00  0.00000000E+00  0.00000000E+00  0.00000000E+00
  0.00000000E+00  0.00000000E+00  0.00000000E+00  0.00000000E+00  0.00000000E+00
  0.00000000E+00  0.00000000E+00  0.00000000E+00  0.00000000E+00  0.00000000E+00
  0.00000000E+00  0.00000000E+00  6.89990666E-02  3.16423961E-01  7.44308291E-01
  1.00000000E+00  1.00000000E+00  0.00000000E+00  0.00000000E+00  0.00000000E+00
  0.00000000E+00  0.00000000E+00  0.00000000E+00  0.00000000E+00  6.89990666E-02
  3.16423961E-01  7.44308291E-01  1.00000000E+00  1.00000000E+00  0.00000000E+00
  0.00000000E+00  0.00000000E+00  0.00000000E+00  0.00000000E+00  0.00000000E+00
  0.00000000E+00  6.89990666E-02  3.16423961E-01  7.44308291E-01  1.00000000E+00
  1.00000000E+00  0.00000000E+00  0.00000000E+00  0.00000000E+00  0.00000000E+00
  0.00000000E+00  0.00000000E+00  0.00000000E+00  6.89990666E-02  3.16423961E-01
  7.44308291E-01  1.00000000E+00  1.00000000E+00  0.00000000E+00  0.00000000E+00
  0.00000000E+00  0.00000000E+00  0.00000000E+00  0.00000000E+00  0.00000000E+00
  0.00000000E+00  0.00000000E+00  0.00000000E+00  0.00000000E+00  6.89990666E-02
  3.16423961E-01  7.44308291E-01  1.00000000E+00  1.00000000E+00  0.00000000E+00
  0.00000000E+00  0.00000000E+00  0.00000000E+00  0.00000000E+00  0.00000000E+00
  0.00000000E+00  0.00000000E+00  0.00000000E+00  0.00000000E+00  0.00000000E+00
  6.89990666E-02  3.16423961E-01  7.44308291E-01  1.00000000E+00  1.00000000E+00
  0.00000000E+00  0.00000000E+00  0.00000000E+00  0.00000000E+00  0.00000000E+00
  0.00000000E+00  0.00000000E+00  0.00000000E+00  0.00000000E+00  0.00000000E+00
  0.00000000E+00  0.00000000E+00  0.00000000E+00
Coordinates of each shell                  R   N=         219
  0.00000000E+00  2.11957163E+00  3.44889983E+00  0.00000000E+00  2.11957163E+00
  3.44889983E+00  0.00000000E+00  2.11957163E+00  3.44889983E+00  0.00000000E+00
  2.11957163E+00  3.44889983E+00  0.00000000E+00  2.11957163E+00  3.44889983E+00
  0.00000000E+00  1.34756371E+00  5.92348675E+00  0.00000000E+00  1.34756371E+00
  5.92348675E+00  0.00000000E+00  1.34756371E+00  5.92348675E+00  0.00000000E+00
  1.34756371E+00  5.92348675E+00  0.00000000E+00  1.34756371E+00  5.92348675E+00
 -1.65023508E-16 -1.34756371E+00  5.92348675E+00 -1.65023508E-16 -1.34756371E+00
  5.92348675E+00 -1.65023508E-16 -1.34756371E+00  5.92348675E+00 -1.65023508E-16
 -1.34756371E+00  5.92348675E+00 -1.65023508E-16 -1.34756371E+00  5.92348675E+00
 -2.59564089E-16 -2.11957163E+00  3.44889983E+00 -2.59564089E-16 -2.11957163E+00
  3.44889983E+00 -2.59564089E-16 -2.11957163E+00  3.44889983E+00 -2.59564089E-16
 -2.11957163E+00  3.44889983E+00 -2.59564089E-16 -2.11957163E+00  3.44889983E+00
  0.00000000E+00  2.60222867E-48  1.90158073E+00  0.00000000E+00  2.60222867E-48
  1.90158073E+00  0.00000000E+00  2.60222867E-48  1.90158073E+00  0.00000000E+00
  2.60222867E-48  1.90158073E+00  0.00000000E+00  2.60222867E-48  1.90158073E+00
  0.00000000E+00  4.00284435E+00  2.67519682E+00  0.00000000E+00  4.00284435E+00
  2.67519682E+00  0.00000000E+00  2.58102764E+00  7.55338121E+00  0.00000000E+00
  2.58102764E+00  7.55338121E+00 -3.16074284E-16 -2.58102764E+00  7.55338121E+00
 -3.16074284E-16 -2.58102764E+00  7.55338121E+00 -4.90190863E-16 -4.00284435E+00
  2.67519682E+00 -4.90190863E-16 -4.00284435E+00  2.67519682E+00  0.00000000E+00
 -1.06769424E-48 -7.80218439E-01  0.00000000E+00 -1.06769424E-48 -7.80218439E-01
  0.00000000E+00 -1.06769424E-48 -7.80218439E-01  0.00000000E+00 -1.06769424E-48
 -7.80218439E-01  0.00000000E+00 -1.06769424E-48 -7.80218439E-01  0.00000000E+00
 -2.27950293E+00 -2.13646544E+00  0.00000000E+00 -2.27950293E+00 -2.13646544E+00
  0.00000000E+00 -2.27950293E+00 -2.13646544E+00  0.00000000E+00 -2.27950293E+00
 -2.13646544E+00  0.00000000E+00 -2.27950293E+00 -2.13646544E+00  2.79149378E-16
  2.27950293E+00 -2.13646544E+00  2.79149378E-16  2.27950293E+00 -2.13646544E+00
  2.79149378E-16  2.27950293E+00 -2.13646544E+00  2.79149378E-16  2.27950293E+00
 -2.13646544E+00  2.79149378E-16  2.27950293E+00 -2.13646544E+00  0.00000000E+00
 -2.26846126E+00 -4.76943031E+00  0.00000000E+00 -2.26846126E+00 -4.76943031E+00
  0.00000000E+00 -2.26846126E+00 -4.76943031E+00  0.00000000E+00 -2.26846126E+00
 -4.76943031E+00  0.00000000E+00 -2.26846126E+00 -4.76943031E+00  0.00000000E+00
 -4.07658902E+00 -1.15624748E+00  0.00000000E+00 -4.07658902E+00 -1.15624748E+00
  2.77797208E-16  2.26846126E+00 -4.76943031E+00  2.77797208E-16  2.26846126E+00
 -4.76943031E+00  2.77797208E-16  2.26846126E+00 -4.76943031E+00  2.77797208E-16
  2.26846126E+00 -4.76943031E+00  2.77797208E-16  2.26846126E+00 -4.76943031E+00
  4.99221682E-16  4.07658902E+00 -1.15624748E+00  4.99221682E-16  4.07658902E+00
 -1.15624748E+00  0.00000000E+00 -8.36267027E-48 -6.11102815E+00  0.00000000E+00
 -8.36267027E-48 -6.11102815E+00  0.00000000E+00 -8.36267027E-48 -6.11102815E+00
  0.00000000E+00 -8.36267027E-48 -6.11102815E+00  0.00000000E+00 -8.36267027E-48
 -6.11102815E+00  0.00000000E+00 -4.06095154E+00 -5.77149160E+00  0.00000000E+00
 -4.06095154E+00 -5.77149160E+00  4.97306706E-16  4.06095154E+00 -5.77149160E+00
  4.97306706E-16  4.06095154E+00 -5.77149160E+00  0.00000000E+00 -1.11709126E-47
 -8.16315356E+00  0.00000000E+00 -1.11709126E-47 -8.16315356E+00
Constraint Structure                       R   N=          60
  0.00000000E+00  2.11957163E+00  3.44889983E+00  0.00000000E+00  1.34756371E+00
  5.92348675E+00 -1.65023508E-16 -1.34756371E+00  5.92348675E+00 -2.59564089E-16
 -2.11957163E+00  3.44889983E+00  0.00000000E+00  2.60222867E-48  1.90158073E+00
  0.00000000E+00  4.00284435E+00  2.67519682E+00  0.00000000E+00  2.58102764E+00
  7.55338121E+00 -3.16074284E-16 -2.58102764E+00  7.55338121E+00 -4.90190863E-16
 -4.00284435E+00  2.67519682E+00  0.00000000E+00 -1.06769424E-48 -7.80218439E-01
  0.00000000E+00 -2.27950293E+00 -2.13646544E+00  2.79149378E-16  2.27950293E+00
 -2.13646544E+00  0.00000000E+00 -2.26846126E+00 -4.76943031E+00  0.00000000E+00
 -4.07658902E+00 -1.15624748E+00  2.77797208E-16  2.26846126E+00 -4.76943031E+00
  4.99221682E-16  4.07658902E+00 -1.15624748E+00  0.00000000E+00 -8.36267027E-48
 -6.11102815E+00  0.00000000E+00 -4.06095154E+00 -5.77149160E+00  4.97306706E-16
  4.06095154E+00 -5.77149160E+00  0.00000000E+00 -1.11709126E-47 -8.16315356E+00
Num ILSW                                   I              100
ILSW                                       I   N=         100
           0           1           0           0           2           0
           0           0           0           0       20419          -1
           0           0           0           0           0           0
           0           0           0           0           0           0
           1           0           0           0           0           0
           0           0      100000           0          -1           0
           0           0           0           0           0           0
           0           0           0           1           0           0
           0           0           1           0           0           0
           0           0           4          40           0           0
           0           0          40           0           0           0
           0           0           0           0           0           0
           0           0           0           0           0           0
           0           0           0           0           0           0
           0           0           0           0           0           0
           0           0           0           0           0           0
           0           0           0           0
Num RLSW                                   I               40
RLSW                                       R   N=          40
  1.00000000E+00  1.00000000E+00  1.00000000E+00  8.10000000E-01  1.00000000E+00
  0.00000000E+00  3.30000000E-01  1.90000000E-01  0.00000000E+00  4.60000000E-01
  0.00000000E+00  3.30000000E-01  1.90000000E-01  0.00000000E+00  4.60000000E-01
  0.00000000E+00  0.00000000E+00  1.00000000E+00  0.00000000E+00  0.00000000E+00
  0.00000000E+00  0.00000000E+00  1.00000000E+00  0.00000000E+00  0.00000000E+00
  0.00000000E+00  0.00000000E+00  1.00000000E+00  0.00000000E+00  0.00000000E+00
  0.00000000E+00  0.00000000E+00  0.00000000E+00  0.00000000E+00  0.00000000E+00
  0.00000000E+00  0.00000000E+00  0.00000000E+00  1.00000000E+00  1.00000000E+00
MxBond                                     I                3
NBond                                      I   N=          20
           3           3           3           3           3           1
           1           1           1           3           3           3
           3           1           3           1           3           1
           1           1
IBond                                      I   N=          60
           2           5           6           1           3           7
           2           4           8           3           5           9
           1           4          10           1           0           0
           2           0           0           3           0           0
           4           0           0           5          11          12
          10          13          14          10          15          16
          11          17          18          11           0           0
          12          17          19          12           0           0
          13          15          20          13           0           0
          15           0           0          17           0           0
RBond                                      R   N=          60
  1.50000000E+00  1.00000000E+00  1.00000000E+00  1.50000000E+00  1.50000000E+00
  1.00000000E+00  1.50000000E+00  1.50000000E+00  1.00000000E+00  1.50000000E+00
  1.00000000E+00  1.00000000E+00  1.00000000E+00  1.00000000E+00  1.00000000E+00
  1.00000000E+00  0.00000000E+00  0.00000000E+00  1.00000000E+00  0.00000000E+00
  0.00000000E+00  1.00000000E+00  0.00000000E+00  0.00000000E+00  1.00000000E+00
  0.00000000E+00  0.00000000E+00  1.00000000E+00  1.50000000E+00  1.50000000E+00
  1.50000000E+00  1.50000000E+00  1.00000000E+00  1.50000000E+00  1.50000000E+00
  1.00000000E+00  1.50000000E+00  1.50000000E+00  1.00000000E+00  1.00000000E+00
  0.00000000E+00  0.00000000E+00  1.50000000E+00  1.50000000E+00  1.00000000E+00
  1.00000000E+00  0.00000000E+00  0.00000000E+00  1.50000000E+00  1.50000000E+00
  1.00000000E+00  1.00000000E+00  0.00000000E+00  0.00000000E+00  1.00000000E+00
  0.00000000E+00  0.00000000E+00  1.00000000E+00  0.00000000E+00  0.00000000E+00
Virial Ratio                               R      2.009657791947047E+00
SCF Energy                                 R     -4.409804475124307E+02
Total Energy                               R     -4.409804475124307E+02
RMS Density                                R      7.935894824386780E-09
External E-field                           R   N=          35
  0.00000000E+00  0.00000000E+00  0.00000000E+00  0.00000000E+00  0.00000000E+00
  0.00000000E+00  0.00000000E+00  0.00000000E+00  0.00000000E+00  0.00000000E+00
  0.00000000E+00  0.00000000E+00  0.00000000E+00  0.00000000E+00  0.00000000E+00
  0.00000000E+00  0.00000000E+00  0.00000000E+00  0.00000000E+00  0.00000000E+00
  0.00000000E+00  0.00000000E+00  0.00000000E+00  0.00000000E+00  0.00000000E+00
  0.00000000E+00  0.00000000E+00  0.00000000E+00  0.00000000E+00  0.00000000E+00
  0.00000000E+00  0.00000000E+00  0.00000000E+00  0.00000000E+00  0.00000000E+00
IOpCl                                      I                0
IROHF                                      I                0
Alpha Orbital Energies                     R   N=         227
 -1.44731523E+01 -1.03271465E+01 -1.02872465E+01 -1.02872229E+01 -1.02799590E+01
 -1.02799455E+01 -1.02789056E+01 -1.02788966E+01 -1.02734652E+01 -1.02533465E+01
 -1.02528925E+01 -1.07954764E+00 -9.55072870E-01 -8.88657406E-01 -8.45146087E-01
 -8.14054304E-01 -8.08048950E-01 -7.08081459E-01 -7.01088229E-01 -6.40132043E-01
 -6.39826312E-01 -6.31731581E-01 -5.76978198E-01 -5.35466419E-01 -5.34037680E-01
 -5.09836698E-01 -5.07634206E-01 -4.98867357E-01 -4.88646986E-01 -4.58070355E-01
 -4.47418070E-01 -4.40696557E-01 -4.33849610E-01 -4.18034131E-01 -3.50381398E-01
 -3.21485210E-01 -2.76626915E-01 -2.74913405E-01  1.00710906E-02  2.22654659E-02
  3.00534897E-02  4.25463548E-02  4.71129719E-02  5.73388005E-02  6.10128707E-02
  6.82315275E-02  7.59690248E-02  7.66668478E-02  8.09420129E-02  9.37257706E-02
  1.00046106E-01  1.01714633E-01  1.10327843E-01  1.12794025E-01  1.15316666E-01
  1.17515053E-01  1.37865143E-01  1.44029043E-01  1.46119733E-01  1.56719258E-01
  1.58751173E-01  1.69722807E-01  1.74157577E-01  1.79603381E-01  1.88158343E-01
  1.90800052E-01  1.91882440E-01  1.97296241E-01  2.01647758E-01  2.06963803E-01
  2.19812368E-01  2.20804389E-01  2.29848731E-01  2.29930423E-01  2.45234270E-01
  2.46267803E-01  2.52692345E-01  2.53220347E-01  2.63106711E-01  2.67368844E-01
  2.76529401E-01  2.77436086E-01  2.87533762E-01  2.97375651E-01  2.97389813E-01
  3.00288382E-01  3.04251098E-01  3.22160400E-01  3.24502075E-01  3.30764861E-01