 hf/6-31G* opt=tight                                     
GAUSSIAN             49 MOL ORBITALS    220 PRIMITIVES       13 NUCLEI
  C    1    (CENTRE  1)   0.03513368 -3.48511404  0.00000000  CHARGE =  6.0
  C    2    (CENTRE  2)   2.28673294 -2.13690221  0.00000000  CHARGE =  6.0
  C    3    (CENTRE  3)   2.28390030  0.47369586  0.00000000  CHARGE =  6.0
  C    4    (CENTRE  4)   0.00000000  1.76569978  0.00000000  CHARGE =  6.0
  C    5    (CENTRE  5)  -2.25885015  0.44196179  0.00000000  CHARGE =  6.0
  C    6    (CENTRE  6)  -2.22815538 -2.17921686  0.00000000  CHARGE =  6.0
  H    7    (CENTRE  7)   0.05205235 -5.51589500  0.00000000  CHARGE =  1.0
  H    8    (CENTRE  8)   4.06090230 -3.12862107  0.00000000  CHARGE =  1.0
  H    9    (CENTRE  9)   4.01377830  1.53568034  0.00000000  CHARGE =  1.0
  H   10    (CENTRE 10)  -4.03008098  1.44561238  0.00000000  CHARGE =  1.0
  H   11    (CENTRE 11)  -3.99005101 -3.19245207  0.00000000  CHARGE =  1.0
  O   12    (CENTRE 12)   0.09237176  4.32043754  0.00000000  CHARGE =  8.0
  H   13    (CENTRE 13)  -1.55814338  5.01142917  0.00000000  CHARGE =  1.0
CENTRE ASSIGNMENTS    1  1  1  1  1  1  1  1  1  1  1  1  1  1  1  1  1  1  1  1
CENTRE ASSIGNMENTS    1  1  1  1  1  1  1  1  2  2  2  2  2  2  2  2  2  2  2  2
CENTRE ASSIGNMENTS    2  2  2  2  2  2  2  2  2  2  2  2  2  2  2  2  3  3  3  3
CENTRE ASSIGNMENTS    3  3  3  3  3  3  3  3  3  3  3  3  3  3  3  3  3  3  3  3
CENTRE ASSIGNMENTS    3  3  3  3  4  4  4  4  4  4  4  4  4  4  4  4  4  4  4  4
CENTRE ASSIGNMENTS    4  4  4  4  4  4  4  4  4  4  4  4  5  5  5  5  5  5  5  5
CENTRE ASSIGNMENTS    5  5  5  5  5  5  5  5  5  5  5  5  5  5  5  5  5  5  5  5
CENTRE ASSIGNMENTS    6  6  6  6  6  6  6  6  6  6  6  6  6  6  6  6  6  6  6  6
CENTRE ASSIGNMENTS    6  6  6  6  6  6  6  6  7  7  7  7  8  8  8  8  9  9  9  9
CENTRE ASSIGNMENTS   10 10 10 10 11 11 11 11 12 12 12 12 12 12 12 12 12 12 12 12
CENTRE ASSIGNMENTS   12 12 12 12 12 12 12 12 12 12 12 12 12 12 12 12 13 13 13 13
TYPE ASSIGNMENTS      1  1  1  1  1  1  1  1  1  2  2  2  3  3  3  4  4  4  1  2
TYPE ASSIGNMENTS      3  4  5  6  7  8  9 10  1  1  1  1  1  1  1  1  1  2  2  2
TYPE ASSIGNMENTS      3  3  3  4  4  4  1  2  3  4  5  6  7  8  9 10  1  1  1  1
TYPE ASSIGNMENTS      1  1  1  1  1  2  2  2  3  3  3  4  4  4  1  2  3  4  5  6
TYPE ASSIGNMENTS      7  8  9 10  1  1  1  1  1  1  1  1  1  2  2  2  3  3  3  4
TYPE ASSIGNMENTS      4  4  1  2  3  4  5  6  7  8  9 10  1  1  1  1  1  1  1  1
TYPE ASSIGNMENTS      1  2  2  2  3  3  3  4  4  4  1  2  3  4  5  6  7  8  9 10
TYPE ASSIGNMENTS      1  1  1  1  1  1  1  1  1  2  2  2  3  3  3  4  4  4  1  2
TYPE ASSIGNMENTS      3  4  5  6  7  8  9 10  1  1  1  1  1  1  1  1  1  1  1  1
TYPE ASSIGNMENTS      1  1  1  1  1  1  1  1  1  1  1  1  1  1  1  1  1  2  2  2
TYPE ASSIGNMENTS      3  3  3  4  4  4  1  2  3  4  5  6  7  8  9 10  1  1  1  1
EXPONENTS  0.3047525D+04 0.4573695D+03 0.1039487D+03 0.2921016D+02 0.9286663D+01
EXPONENTS  0.3163927D+01 0.7868272D+01 0.1881289D+01 0.5442493D+00 0.7868272D+01
EXPONENTS  0.1881289D+01 0.5442493D+00 0.7868272D+01 0.1881289D+01 0.5442493D+00
EXPONENTS  0.7868272D+01 0.1881289D+01 0.5442493D+00 0.1687145D+00 0.1687145D+00
EXPONENTS  0.1687145D+00 0.1687145D+00 0.8000000D+00 0.8000000D+00 0.8000000D+00
EXPONENTS  0.8000000D+00 0.8000000D+00 0.8000000D+00 0.3047525D+04 0.4573695D+03
EXPONENTS  0.1039487D+03 0.2921016D+02 0.9286663D+01 0.3163927D+01 0.7868272D+01
EXPONENTS  0.1881289D+01 0.5442493D+00 0.7868272D+01 0.1881289D+01 0.5442493D+00
EXPONENTS  0.7868272D+01 0.1881289D+01 0.5442493D+00 0.7868272D+01 0.1881289D+01
EXPONENTS  0.5442493D+00 0.1687145D+00 0.1687145D+00 0.1687145D+00 0.1687145D+00
EXPONENTS  0.8000000D+00 0.8000000D+00 0.8000000D+00 0.8000000D+00 0.8000000D+00
EXPONENTS  0.8000000D+00 0.3047525D+04 0.4573695D+03 0.1039487D+03 0.2921016D+02
EXPONENTS  0.9286663D+01 0.3163927D+01 0.7868272D+01 0.1881289D+01 0.5442493D+00
EXPONENTS  0.7868272D+01 0.1881289D+01 0.5442493D+00 0.7868272D+01 0.1881289D+01
EXPONENTS  0.5442493D+00 0.7868272D+01 0.1881289D+01 0.5442493D+00 0.1687145D+00
EXPONENTS  0.1687145D+00 0.1687145D+00 0.1687145D+00 0.8000000D+00 0.8000000D+00
EXPONENTS  0.8000000D+00 0.8000000D+00 0.8000000D+00 0.8000000D+00 0.3047525D+04
EXPONENTS  0.4573695D+03 0.1039487D+03 0.2921016D+02 0.9286663D+01 0.3163927D+01
EXPONENTS  0.7868272D+01 0.1881289D+01 0.5442493D+00 0.7868272D+01 0.1881289D+01
EXPONENTS  0.5442493D+00 0.7868272D+01 0.1881289D+01 0.5442493D+00 0.7868272D+01
EXPONENTS  0.1881289D+01 0.5442493D+00 0.1687145D+00 0.1687145D+00 0.1687145D+00
EXPONENTS  0.1687145D+00 0.8000000D+00 0.8000000D+00 0.8000000D+00 0.8000000D+00
EXPONENTS  0.8000000D+00 0.8000000D+00 0.3047525D+04 0.4573695D+03 0.1039487D+03
EXPONENTS  0.2921016D+02 0.9286663D+01 0.3163927D+01 0.7868272D+01 0.1881289D+01
EXPONENTS  0.5442493D+00 0.7868272D+01 0.1881289D+01 0.5442493D+00 0.7868272D+01
EXPONENTS  0.1881289D+01 0.5442493D+00 0.7868272D+01 0.1881289D+01 0.5442493D+00
EXPONENTS  0.1687145D+00 0.1687145D+00 0.1687145D+00 0.1687145D+00 0.8000000D+00
EXPONENTS  0.8000000D+00 0.8000000D+00 0.8000000D+00 0.8000000D+00 0.8000000D+00
EXPONENTS  0.3047525D+04 0.4573695D+03 0.1039487D+03 0.2921016D+02 0.9286663D+01
EXPONENTS  0.3163927D+01 0.7868272D+01 0.1881289D+01 0.5442493D+00 0.7868272D+01
EXPONENTS  0.1881289D+01 0.5442493D+00 0.7868272D+01 0.1881289D+01 0.5442493D+00
EXPONENTS  0.7868272D+01 0.1881289D+01 0.5442493D+00 0.1687145D+00 0.1687145D+00
EXPONENTS  0.1687145D+00 0.1687145D+00 0.8000000D+00 0.8000000D+00 0.8000000D+00
EXPONENTS  0.8000000D+00 0.8000000D+00 0.8000000D+00 0.1873114D+02 0.2825394D+01
EXPONENTS  0.6401217D+00 0.1612778D+00 0.1873114D+02 0.2825394D+01 0.6401217D+00
EXPONENTS  0.1612778D+00 0.1873114D+02 0.2825394D+01 0.6401217D+00 0.1612778D+00
EXPONENTS  0.1873114D+02 0.2825394D+01 0.6401217D+00 0.1612778D+00 0.1873114D+02
EXPONENTS  0.2825394D+01 0.6401217D+00 0.1612778D+00 0.5484672D+04 0.8252349D+03
EXPONENTS  0.1880470D+03 0.5296450D+02 0.1689757D+02 0.5799635D+01 0.1553962D+02
EXPONENTS  0.3599934D+01 0.1013762D+01 0.1553962D+02 0.3599934D+01 0.1013762D+01
EXPONENTS  0.1553962D+02 0.3599934D+01 0.1013762D+01 0.1553962D+02 0.3599934D+01
EXPONENTS  0.1013762D+01 0.2700058D+00 0.2700058D+00 0.2700058D+00 0.2700058D+00
EXPONENTS  0.8000000D+00 0.8000000D+00 0.8000000D+00 0.8000000D+00 0.8000000D+00
EXPONENTS  0.8000000D+00 0.1873114D+02 0.2825394D+01 0.6401217D+00 0.1612778D+00
MO    1     MO 0.0        OCC NO =    1.0000000  ORB. ENERGY =  -20.855124
  0.14204011D-05  0.26203628D-05  0.42300780D-05  0.55063046D-05  0.46985397D-05
  0.16222929D-05 -0.74542646D-05 -0.34356637D-05  0.96339597D-05  0.22912913D-04
  0.17568169D-04  0.87677474D-05  0.13356002D-05  0.10240535D-05  0.51107447D-06
  0.00000000D+00  0.00000000D+00  0.00000000D+00 -0.38314662D-04 -0.24677453D-05
 -0.18677036D-04  0.00000000D+00 -0.14908728D-04  0.10315661D-05  0.79113566D-05
  0.61762978D-05  0.00000000D+00  0.00000000D+00  0.30355551D-05  0.56000065D-05
  0.90401468D-05  0.11767585D-04  0.10041302D-04  0.34670201D-05 -0.11252499D-04
 -0.51862664D-05  0.14542832D-04 -0.74690040D-05 -0.57267586D-05 -0.28580539D-05
 -0.72489737D-06 -0.55580533D-06 -0.27738581D-06  0.00000000D+00  0.00000000D+00
  0.00000000D+00 -0.30704001D-04  0.43434618D-05 -0.24354764D-04  0.00000000D+00
  0.75179116D-05  0.10094280D-04  0.13351607D-04  0.35475874D-04  0.00000000D+00
  0.00000000D+00 -0.39963007D-05 -0.73723945D-05 -0.11901331D-04 -0.15491996D-04
 -0.13219349D-04 -0.45643234D-05 -0.20733904D-05 -0.95562375D-06  0.26796687D-05
 -0.10009189D-04 -0.76744112D-05 -0.38300691D-05  0.11885989D-04  0.91134225D-05
  0.45482365D-05  0.00000000D+00  0.00000000D+00  0.00000000D+00  0.13295697D-03
 -0.13285351D-04 -0.11184344D-06  0.00000000D+00 -0.22249023D-04 -0.60416682D-04
 -0.29042440D-04  0.70799009D-04  0.00000000D+00  0.00000000D+00 -0.56101507D-05
 -0.10349633D-04 -0.16707516D-04 -0.21748222D-04 -0.18557797D-04 -0.64075613D-05
 -0.15271300D-03 -0.70385281D-04  0.19736767D-03  0.71719168D-04  0.54989709D-04
  0.27443719D-04  0.45352039D-03  0.34773067D-03  0.17354197D-03  0.00000000D+00
  0.00000000D+00  0.00000000D+00  0.36300137D-04 -0.15398102D-03 -0.73309915D-04
  0.00000000D+00 -0.46251905D-05 -0.13147564D-03 -0.88190783D-04  0.49093339D-04
  0.00000000D+00  0.00000000D+00  0.51728492D-05  0.95428968D-05  0.15405194D-04
  0.20052986D-04  0.17111249D-04  0.59081031D-05 -0.40469453D-04 -0.18652334D-04
  0.52303091D-04 -0.35054839D-04 -0.26877827D-04 -0.13413920D-04 -0.74884382D-04
 -0.57416594D-04 -0.28654905D-04  0.00000000D+00  0.00000000D+00  0.00000000D+00
 -0.22823811D-03 -0.77523286D-04  0.29880073D-05  0.00000000D+00 -0.49950856D-05
 -0.10191365D-03  0.26954033D-05 -0.99531584D-04  0.00000000D+00  0.00000000D+00
 -0.32736204D-05 -0.60391903D-05 -0.97491258D-05 -0.12690465D-04 -0.10828797D-04
 -0.37389233D-05  0.13767072D-04  0.63452311D-05 -0.17792690D-04 -0.17502106D-04
 -0.13419504D-04 -0.66972732D-05  0.34644374D-04  0.26563109D-04  0.13256853D-04
  0.00000000D+00  0.00000000D+00  0.00000000D+00  0.80325979D-04  0.38146071D-04
  0.31533896D-04  0.00000000D+00 -0.80487568D-05  0.35392006D-04 -0.14619614D-04
 -0.26484011D-04  0.00000000D+00  0.00000000D+00 -0.73732206D-06 -0.12506378D-05
 -0.14238069D-05 -0.59893103D-05  0.27086068D-06  0.45943098D-06  0.52304593D-06
 -0.48835150D-05  0.34700619D-05  0.58858817D-05  0.67008683D-05 -0.18039604D-04
 -0.31923020D-05 -0.54147483D-05 -0.61644996D-05 -0.92483007D-05  0.33147530D-05
  0.56224485D-05  0.64009589D-05  0.14106657D-04  0.82718753D+00  0.15224666D+01
  0.24636384D+01  0.32385216D+01  0.27776612D+01  0.94972953D+00 -0.13231888D-01
 -0.59040425D-02  0.17434717D-01 -0.35613387D-02 -0.27438195D-02 -0.12046846D-02
 -0.25004238D-02 -0.19264417D-02 -0.84581168D-03  0.00000000D+00  0.00000000D+00
  0.00000000D+00  0.11964502D-02  0.19230329D-03  0.58487429D-04  0.00000000D+00
 -0.47261137D-02 -0.48047064D-02 -0.44649740D-02  0.47276017D-04  0.00000000D+00
  0.00000000D+00  0.96420135D-04  0.16354680D-03  0.18619225D-03 -0.50277115D-04
MO    2     MO 0.0        OCC NO =    1.0000000  ORB. ENERGY =  -11.581231
 -0.79367030D-04 -0.14641667D-03 -0.23636191D-03 -0.30767298D-03 -0.26253791D-03
 -0.90648030D-04  0.12038950D-03  0.55487411D-04 -0.15559249D-03 -0.23189567D-05
 -0.17780289D-05 -0.88736104D-06 -0.84559414D-04 -0.64834796D-04 -0.32357107D-04
  0.00000000D+00  0.00000000D+00  0.00000000D+00  0.82177197D-03 -0.13627122D-04
  0.42560573D-03  0.00000000D+00  0.22887655D-04 -0.36998418D-04 -0.13879219D-03
 -0.10111420D-05  0.00000000D+00  0.00000000D+00  0.18855327D-04  0.34784396D-04
  0.56152801D-04  0.73094262D-04  0.62371466D-04  0.21535368D-04 -0.22154680D-04
 -0.10211072D-04  0.28632911D-04  0.47272912D-04  0.36245871D-04  0.18089230D-04
 -0.10710720D-03 -0.82123007D-04 -0.40985136D-04  0.00000000D+00  0.00000000D+00
  0.00000000D+00 -0.10630021D-02  0.33720542D-03 -0.24608881D-03  0.00000000D+00
  0.45336691D-04  0.12331867D-03  0.11147690D-04 -0.94040799D-04  0.00000000D+00
  0.00000000D+00  0.27081234D-02  0.49959588D-02  0.80650266D-02  0.10498268D-01
  0.89581913D-02  0.30930482D-02  0.12998622D-03  0.59910529D-04 -0.16799538D-03
  0.13731205D-03  0.10528217D-03  0.52543182D-04  0.50997206D-04  0.39101423D-04
  0.19514351D-04  0.00000000D+00  0.00000000D+00  0.00000000D+00  0.18447756D-02
 -0.83164215D-03 -0.39361395D-03  0.00000000D+00 -0.28675372D-03 -0.48450405D-03
 -0.25487385D-03  0.23379571D-03  0.00000000D+00  0.00000000D+00  0.53406496D+00
  0.98524557D+00  0.15904918D+01  0.20703478D+01  0.17666315D+01  0.60997541D+00
 -0.11129130D-01 -0.51294057D-02  0.14383389D-01 -0.33149665D-04 -0.25417061D-04
 -0.12684895D-04  0.10498919D-02  0.80499053D-03  0.40174669D-03  0.00000000D+00
  0.00000000D+00  0.00000000D+00 -0.30595944D-02  0.74080178D-04  0.15141311D-02
  0.00000000D+00 -0.16540088D-02 -0.11460459D-02 -0.24417271D-02  0.13863964D-03
  0.00000000D+00  0.00000000D+00  0.28835342D-02  0.53195575D-02  0.85874152D-02
  0.11178263D-01  0.95384321D-02  0.32933914D-02  0.13160312D-03  0.60655757D-04
 -0.17008507D-03 -0.18193702D-03 -0.13949777D-03 -0.69619162D-04  0.40365526D-04
  0.30949725D-04  0.15446082D-04  0.00000000D+00  0.00000000D+00  0.00000000D+00
  0.19521551D-02  0.89223732D-03 -0.32342307D-03  0.00000000D+00 -0.32766443D-03
 -0.48165774D-03 -0.25409498D-03 -0.23986930D-03  0.00000000D+00  0.00000000D+00
  0.19174451D-04  0.35373118D-04  0.57103181D-04  0.74331374D-04  0.63427096D-04
  0.21899852D-04 -0.22372433D-04 -0.10311434D-04  0.28914336D-04 -0.41830564D-04
 -0.32073023D-04 -0.16006686D-04 -0.11629554D-03 -0.89168044D-04 -0.44501103D-04
  0.00000000D+00  0.00000000D+00  0.00000000D+00 -0.10488080D-02 -0.35838101D-03
 -0.23263282D-03  0.00000000D+00  0.44671891D-04  0.12044660D-03  0.10513279D-04
  0.87538460D-04  0.00000000D+00  0.00000000D+00  0.17882386D-04  0.30331911D-04
  0.34531809D-04  0.12955067D-03 -0.98137927D-05 -0.16646050D-04 -0.18950939D-04
 -0.69663317D-04  0.31224909D-04  0.52963355D-04  0.60296908D-04  0.27837573D-03
  0.27101046D-04  0.45968503D-04  0.52333516D-04  0.29059086D-03 -0.11604408D-04
 -0.19683272D-04 -0.22408709D-04 -0.76622232D-04  0.31181057D-04  0.57389790D-04
  0.92867513D-04  0.12207694D-03  0.10470469D-03  0.35800310D-04 -0.77622040D-03
 -0.34634803D-03  0.10227704D-02 -0.50303216D-05 -0.38755916D-05 -0.17015935D-05
 -0.74759943D-03 -0.57598506D-03 -0.25288847D-03  0.00000000D+00  0.00000000D+00
  0.00000000D+00 -0.15592780D-02  0.13322680D-04  0.76983551D-03  0.00000000D+00
  0.69045720D-03 -0.50277626D-03  0.93899333D-03  0.49412370D-04  0.00000000D+00
  0.00000000D+00  0.42735859D-04  0.72488105D-04  0.82525146D-04 -0.57101317D-04
MO    3     MO 0.0        OCC NO =    1.0000000  ORB. ENERGY =  -11.469371
  0.12678285D-02  0.23388961D-02  0.37757035D-02  0.49148441D-02  0.41938454D-02
  0.14480340D-02 -0.33277271D-04 -0.15337464D-04  0.43007849D-04  0.37904627D-04
  0.29062864D-04  0.14504406D-04 -0.26278819D-04 -0.20148932D-04 -0.10055729D-04
  0.00000000D+00  0.00000000D+00  0.00000000D+00 -0.53458569D-03  0.12114411D-04
 -0.23835907D-03  0.00000000D+00  0.47007979D-04  0.87656854D-04  0.17477630D-04
 -0.95674280D-04  0.00000000D+00  0.00000000D+00 -0.20135462D-03 -0.37145996D-03
 -0.59965155D-03 -0.78056815D-03 -0.66606021D-03 -0.22997459D-03  0.68572220D-04
  0.31604873D-04 -0.88623364D-04  0.34990389D-04  0.26828411D-04  0.13389257D-04
 -0.45678483D-04 -0.35023363D-04 -0.17479113D-04  0.00000000D+00  0.00000000D+00
  0.00000000D+00  0.43373257D-03 -0.18415961D-03  0.10513192D-03  0.00000000D+00
 -0.81044742D-05 -0.10325877D-04 -0.77233129D-04  0.28161583D-04  0.00000000D+00
  0.00000000D+00 -0.14664261D-02 -0.27052699D-02 -0.43671444D-02 -0.56847244D-02
 -0.48507857D-02 -0.16748597D-02  0.51905354D-04  0.23923130D-04 -0.67082954D-04
  0.21352807D-04  0.16371978D-04  0.81707647D-05  0.25268276D-04  0.19374111D-04
  0.96690394D-05  0.00000000D+00  0.00000000D+00  0.00000000D+00 -0.44436135D-03
  0.15074875D-03  0.10218219D-03  0.00000000D+00  0.18465511D-03  0.69653528D-04
  0.95193396D-05 -0.60576280D-04  0.00000000D+00  0.00000000D+00 -0.32131835D-02
 -0.59276961D-02 -0.95691394D-02 -0.12456176D-01 -0.10628878D-01 -0.36698961D-02
  0.14173159D-03  0.65323960D-04 -0.18317520D-03  0.21014826D-03  0.16112836D-03
  0.80414344D-04  0.13270578D-03  0.10175037D-03  0.50780567D-04  0.00000000D+00
  0.00000000D+00  0.00000000D+00  0.12980828D-02 -0.23032731D-03 -0.38055958D-03
  0.00000000D+00 -0.67802134D-03 -0.45400090D-03 -0.16230297D-03 -0.22519598D-03
  0.00000000D+00  0.00000000D+00  0.53356318D+00  0.98431988D+00  0.15889975D+01
  0.20684026D+01  0.17649717D+01  0.60940231D+00 -0.11710568D-01 -0.53973899D-02
  0.15134845D-01  0.98636720D-03  0.75628381D-03  0.37743863D-03  0.20771861D-03
  0.15926546D-03  0.79484625D-04  0.00000000D+00  0.00000000D+00  0.00000000D+00
 -0.29119819D-02 -0.51634029D-03  0.20930978D-03  0.00000000D+00 -0.24468870D-02
 -0.23791389D-02 -0.27224164D-02  0.31205470D-03  0.00000000D+00  0.00000000D+00
  0.18148866D-01  0.33481114D-01  0.54048899D-01  0.70355607D-01  0.60034567D-01
  0.20728493D-01 -0.24407553D-03 -0.11249419D-03  0.31544544D-03 -0.60374253D-04
 -0.46291148D-04 -0.23102527D-04 -0.13666790D-03 -0.10478828D-03 -0.52296694D-04
  0.00000000D+00  0.00000000D+00  0.00000000D+00  0.11835038D-02  0.31349154D-03
  0.36452121D-03  0.00000000D+00 -0.36667367D-03 -0.49174091D-03 -0.27230346D-03
  0.78924545D-04  0.00000000D+00  0.00000000D+00 -0.87414937D-05 -0.14827228D-04
 -0.16880275D-04 -0.46300955D-04  0.82862554D-05  0.14055057D-04  0.16001186D-04
  0.62167020D-04 -0.53223579D-05 -0.90277263D-05 -0.10277747D-04 -0.21852435D-04
 -0.37683111D-04 -0.63917689D-04 -0.72768030D-04  0.18358641D-03  0.60283698D-05
  0.10225256D-04  0.11641093D-04  0.10521758D-03  0.16118263D-05  0.29666208D-05
  0.48005525D-05  0.63104606D-05  0.54124454D-05  0.18506070D-05  0.52887745D-04
  0.23598409D-04 -0.69686418D-04  0.22344143D-04  0.17214958D-04  0.75582936D-05
  0.22985417D-04  0.17709025D-04  0.77752157D-05  0.00000000D+00  0.00000000D+00
  0.00000000D+00  0.54071994D-04  0.26762911D-04 -0.13683003D-04  0.00000000D+00
  0.32327634D-04  0.94077903D-04 -0.69194533D-04  0.69958430D-04  0.00000000D+00
  0.00000000D+00 -0.29070612D-05 -0.49309259D-05 -0.56136849D-05  0.12914162D-04
MO    4     MO 0.0        OCC NO =    1.0000000  ORB. ENERGY =  -11.463847
  0.59261909D-02  0.10932665D-01  0.17648711D-01  0.22973378D-01  0.19603225D-01
  0.67685226D-02 -0.13614269D-03 -0.62748043D-04  0.17595206D-03 -0.40281265D-04
 -0.30885119D-04 -0.15413839D-04 -0.25494557D-04 -0.19547609D-04 -0.97556270D-05
  0.00000000D+00  0.00000000D+00  0.00000000D+00 -0.57861900D-03 -0.29769435D-05
 -0.24633773D-03  0.00000000D+00  0.23999652D-04  0.68773529D-04 -0.78223425D-05
  0.95881256D-04  0.00000000D+00  0.00000000D+00  0.14151877D-01  0.26107449D-01
  0.42145518D-01  0.54860942D-01  0.46812941D-01  0.16163384D-01 -0.15691974D-03
 -0.72324167D-04  0.20280451D-03  0.70110836D-04  0.53756542D-04  0.26828282D-04
 -0.15430865D-03 -0.11831409D-03 -0.59047021D-04  0.00000000D+00  0.00000000D+00
  0.00000000D+00  0.12446396D-02 -0.32814891D-03  0.37439653D-03  0.00000000D+00
 -0.36158300D-03 -0.49542382D-03 -0.25632470D-03 -0.67309521D-04  0.00000000D+00
  0.00000000D+00  0.53364412D+00  0.98446920D+00  0.15892385D+01  0.20687164D+01
  0.17652394D+01  0.60949475D+00 -0.11775248D-01 -0.54272010D-02  0.15218438D-01
 -0.11198321D-02 -0.85861620D-03 -0.42850966D-03  0.77667201D-04  0.59550284D-04
  0.29719765D-04  0.00000000D+00  0.00000000D+00  0.00000000D+00 -0.29265405D-02
  0.53290785D-03  0.25036246D-03  0.00000000D+00 -0.25058536D-02 -0.24039466D-02
 -0.27371883D-02 -0.27822361D-03  0.00000000D+00  0.00000000D+00 -0.30508681D-02
 -0.56282559D-02 -0.90857501D-02 -0.11826947D-01 -0.10091955D-01 -0.34845096D-02
  0.13180154D-03  0.60747210D-04 -0.17034152D-03 -0.20182350D-03 -0.15474546D-03
 -0.77228831D-04  0.12483460D-03  0.95715254D-04  0.47768620D-04  0.00000000D+00
  0.00000000D+00  0.00000000D+00  0.13416961D-02  0.19697071D-03 -0.38564817D-03
  0.00000000D+00 -0.69851986D-03 -0.46088475D-03 -0.17008844D-03  0.20268329D-03
  0.00000000D+00  0.00000000D+00  0.14650909D-02  0.27028066D-02  0.43631679D-02
  0.56795482D-02  0.48463688D-02  0.16733347D-02 -0.13757080D-04 -0.63406255D-05
  0.17779776D-04 -0.14864132D-04 -0.11396874D-04 -0.56878389D-05  0.27707762D-04
  0.21244555D-04  0.10602522D-04  0.00000000D+00  0.00000000D+00  0.00000000D+00
 -0.49142126D-03 -0.17472022D-03  0.79514142D-04  0.00000000D+00  0.17126491D-03
  0.57175965D-04 -0.74084621D-05  0.56582635D-04  0.00000000D+00  0.00000000D+00
 -0.73554125D-04 -0.13569300D-03 -0.21905057D-03 -0.28513876D-03 -0.24330942D-03
 -0.84008896D-04  0.67496143D-04  0.31108911D-04 -0.87232632D-04 -0.41640964D-04
 -0.31927650D-04 -0.15934135D-04 -0.49401352D-04 -0.37877823D-04 -0.18903688D-04
  0.00000000D+00  0.00000000D+00  0.00000000D+00  0.44540657D-03  0.20058479D-03
  0.10193383D-03  0.00000000D+00 -0.15787018D-04 -0.19177090D-04 -0.82151814D-04
 -0.27502259D-04  0.00000000D+00  0.00000000D+00 -0.86814198D-05 -0.14725331D-04
 -0.16764269D-04 -0.43826187D-04  0.67968952D-05  0.11528821D-04  0.13125155D-04
  0.10570395D-03 -0.35932813D-04 -0.60948852D-04 -0.69388114D-04  0.16719970D-03
 -0.38108984D-05 -0.64640049D-05 -0.73590411D-05 -0.25873235D-04  0.95079923D-05
  0.16127354D-04  0.18360423D-04  0.66925426D-04  0.11633029D-04  0.21410983D-04
  0.34647012D-04  0.45544467D-04  0.39063225D-04  0.13356380D-04  0.35744540D-04
  0.15949144D-04 -0.47098036D-04 -0.52252416D-04 -0.40257670D-04 -0.17675285D-04
 -0.11708774D-04 -0.90209792D-05 -0.39606957D-05  0.00000000D+00  0.00000000D+00
  0.00000000D+00 -0.75410977D-06  0.66432973D-05 -0.12339217D-04  0.00000000D+00
  0.68528490D-04  0.13855304D-03 -0.23911101D-04 -0.83231708D-04  0.00000000D+00
  0.00000000D+00  0.26245762D-05  0.44517780D-05  0.50681919D-05  0.27322002D-04
MO    5     MO 0.0        OCC NO =    1.0000000  ORB. ENERGY =  -11.462969
  0.53276926D+00  0.98285525D+00  0.15866331D+01  0.20653249D+01  0.17623455D+01
  0.60849554D+00 -0.11872938D-01 -0.54722263D-02  0.15344694D-01 -0.71770136D-04
 -0.55028788D-04 -0.27463222D-04  0.73997316D-03  0.56736448D-03  0.28315464D-03
  0.00000000D+00  0.00000000D+00  0.00000000D+00 -0.29189144D-02  0.66548500D-05
 -0.58702550D-03  0.00000000D+00 -0.24937323D-02 -0.27644457D-02 -0.27382585D-02
 -0.15083892D-04  0.00000000D+00  0.00000000D+00  0.14079113D-01  0.25973215D-01
  0.41928822D-01  0.54578868D-01  0.46572247D-01  0.16080278D-01 -0.17148237D-03
 -0.79036069D-04  0.22162539D-03  0.17165327D-03  0.13161284D-03  0.65684030D-04
  0.49907759D-04  0.38266104D-04  0.19097468D-04  0.00000000D+00  0.00000000D+00
  0.00000000D+00  0.12681220D-02 -0.48298882D-03  0.66956528D-04  0.00000000D+00
 -0.46096658D-03 -0.44153074D-03 -0.25263801D-03 -0.22270729D-03  0.00000000D+00
  0.00000000D+00 -0.62694136D-02 -0.11565844D-01 -0.18670858D-01 -0.24303910D-01
 -0.20738570D-01 -0.71605300D-02  0.13485781D-03  0.62155841D-04 -0.17429147D-03
  0.29424786D-04  0.22561060D-04  0.11259550D-04  0.31321017D-04  0.24014970D-04
  0.11985153D-04  0.00000000D+00  0.00000000D+00  0.00000000D+00 -0.53074450D-03
  0.21412409D-03  0.14829952D-03  0.00000000D+00  0.72197364D-04  0.14471386D-03
  0.51397994D-04  0.66884596D-04  0.00000000D+00  0.00000000D+00  0.78972984D-04
  0.14568974D-03  0.23518841D-03  0.30614542D-03  0.26123444D-03  0.90197976D-04
  0.77951067D-04  0.35927576D-04 -0.10074467D-03  0.19106601D-05  0.14649730D-05
  0.73112419D-06  0.35579767D-04  0.27280308D-04  0.13614786D-04  0.00000000D+00
  0.00000000D+00  0.00000000D+00  0.46656151D-03 -0.72359308D-05 -0.28504005D-03
  0.00000000D+00  0.54608518D-05 -0.44435784D-04 -0.86002420D-04  0.25931457D-06
  0.00000000D+00  0.00000000D+00 -0.22937705D-02 -0.42315586D-02 -0.68310477D-02
 -0.88919944D-02 -0.75875549D-02 -0.26198004D-02  0.49246668D-04  0.22697744D-04
 -0.63646844D-04 -0.22047874D-04 -0.16904911D-04 -0.84367355D-05  0.35975917D-04
  0.27584051D-04  0.13766375D-04  0.00000000D+00  0.00000000D+00  0.00000000D+00
 -0.52663217D-03 -0.21714724D-03  0.12758096D-03  0.00000000D+00  0.43627740D-04
  0.11031222D-03  0.27464350D-04 -0.74253076D-04  0.00000000D+00  0.00000000D+00
  0.29886068D-01  0.55133960D-01  0.89003306D-01  0.11585586D+00  0.98860015D-01
  0.34133987D-01 -0.49253197D-03 -0.22700754D-03  0.63655282D-03 -0.16994273D-03
 -0.13030131D-03 -0.65029484D-04  0.66776065D-04  0.51199651D-04  0.25552214D-04
  0.00000000D+00  0.00000000D+00  0.00000000D+00  0.12080075D-02  0.47659726D-03
  0.61985453D-04  0.00000000D+00 -0.53060147D-03 -0.49698487D-03 -0.33118309D-03
  0.22423899D-03  0.00000000D+00  0.00000000D+00 -0.37995104D-04 -0.64446888D-04
 -0.73370504D-04  0.16624644D-03  0.12061045D-05  0.20457816D-05  0.23290500D-05
  0.97344929D-04 -0.11074066D-04 -0.18783712D-04 -0.21384593D-04 -0.56880695D-04
 -0.10372580D-04 -0.17593859D-04 -0.20029987D-04 -0.53138225D-04 -0.24465384D-06
 -0.41497921D-06 -0.47243916D-06  0.10271064D-03 -0.20501899D-04 -0.37734439D-04
 -0.61061445D-04 -0.80266978D-04 -0.68844521D-04 -0.23539111D-04  0.70243880D-04
  0.31342682D-04 -0.92555361D-04 -0.28895190D-05 -0.22262186D-05 -0.97742989D-06
  0.23045738D-04  0.17755499D-04  0.77956202D-05  0.00000000D+00  0.00000000D+00
  0.00000000D+00  0.21354105D-03 -0.19625690D-05 -0.53218642D-04  0.00000000D+00
 -0.74331764D-04 -0.62381613D-04 -0.71078209D-04  0.40963635D-05  0.00000000D+00
  0.00000000D+00 -0.23792289D-05 -0.40356226D-05 -0.45944137D-05  0.73519968D-05
MO    6     MO 0.0        OCC NO =    1.0000000  ORB. ENERGY =  -11.451704
 -0.30215976D-01 -0.55742577D-01 -0.89985802D-01 -0.11713478D+00 -0.99951318D-01
 -0.34510788D-01  0.78281672D-03  0.36079951D-03 -0.10117195D-02  0.20692387D-03
  0.15865610D-03  0.79180513D-04 -0.25488185D-03 -0.19542723D-03 -0.97531886D-04
  0.00000000D+00  0.00000000D+00  0.00000000D+00  0.14777293D-02 -0.19314623D-03
  0.48821979D-03  0.00000000D+00 -0.48390389D-03 -0.21592944D-03 -0.49241952D-06
  0.20813096D-03  0.00000000D+00  0.00000000D+00 -0.16870424D-02 -0.31122637D-02
 -0.50241587D-02 -0.65399618D-02 -0.55805612D-02 -0.19268337D-02  0.34641756D-04
  0.15966354D-04 -0.44771323D-04  0.14222767D-04  0.10905116D-04  0.54424169D-05
  0.42098043D-05  0.32278109D-05  0.16109039D-05  0.00000000D+00  0.00000000D+00
  0.00000000D+00 -0.62086141D-03  0.21654896D-03 -0.11552608D-03  0.00000000D+00
  0.19731150D-03  0.81032529D-04  0.44657913D-04  0.53084783D-04  0.00000000D+00
  0.00000000D+00  0.46955088D-03  0.86622970D-03  0.13983633D-02  0.18202535D-02
  0.15532256D-02  0.53629149D-03  0.46839978D-04  0.21588503D-04 -0.60536417D-04
  0.51208501D-04  0.39263430D-04  0.19595203D-04  0.20644865D-04  0.15829173D-04
  0.78998668D-05  0.00000000D+00  0.00000000D+00  0.00000000D+00  0.41240884D-03
 -0.17873499D-03 -0.15326241D-03  0.00000000D+00 -0.31856479D-04 -0.23695516D-04
 -0.76676346D-04 -0.20651992D-05  0.00000000D+00  0.00000000D+00  0.11286138D-03
  0.20820721D-03  0.33611099D-03  0.43751664D-03  0.37333374D-03  0.12890317D-03
 -0.24049867D-05 -0.11084562D-05  0.31082268D-05 -0.25956012D-04 -0.19901423D-04
 -0.99322051D-05  0.37047081D-05  0.28405352D-05  0.14176261D-05  0.00000000D+00
  0.00000000D+00  0.00000000D+00 -0.63609143D-03  0.10522921D-03  0.20786756D-03
  0.00000000D+00  0.12322856D-03  0.11356725D-03  0.33892801D-04  0.11725274D-03
  0.00000000D+00  0.00000000D+00 -0.18354211D-01 -0.33859935D-01 -0.54660434D-01
 -0.71151644D-01 -0.60713826D-01 -0.20963025D-01  0.51267560D-03  0.23629172D-03
 -0.66258664D-03 -0.10003572D-03 -0.76701048D-04 -0.38279199D-04  0.27461341D-03
  0.21055615D-03  0.10508227D-03  0.00000000D+00  0.00000000D+00  0.00000000D+00
  0.14793642D-02  0.34782424D-03 -0.34577990D-03  0.00000000D+00 -0.25112732D-03
 -0.56873463D-03 -0.78380633D-04 -0.11070847D-03  0.00000000D+00  0.00000000D+00
  0.53295242D+00  0.98319316D+00  0.15871786D+01  0.20660350D+01  0.17629514D+01
  0.60870474D+00 -0.10840224D-01 -0.49962491D-02  0.14010004D-01  0.69055109D-03
  0.52947077D-03  0.26424302D-03  0.33110548D-03  0.25387068D-03  0.12669926D-03
  0.00000000D+00  0.00000000D+00  0.00000000D+00 -0.30666935D-02 -0.53831595D-03
 -0.28891246D-03  0.00000000D+00 -0.14542313D-02 -0.13258326D-02 -0.27051725D-02
 -0.33201600D-03  0.00000000D+00  0.00000000D+00  0.59519432D-05  0.10095622D-04
  0.11493509D-04  0.78189104D-04 -0.59204481D-05 -0.10042201D-04 -0.11432690D-04
 -0.40560379D-04  0.11810541D-04  0.20032913D-04  0.22806763D-04  0.70035259D-04
  0.25030593D-05  0.42456623D-05  0.48335364D-05  0.71633294D-04 -0.48939261D-04
 -0.83010249D-04 -0.94504235D-04  0.17677503D-03 -0.82454954D-05 -0.15176113D-04
 -0.24557816D-04 -0.32281936D-04 -0.27688029D-04 -0.94670074D-05  0.21958138D-04
  0.97976782D-05 -0.28932675D-04  0.22497748D-04  0.17333302D-04  0.76102532D-05
  0.40376250D-04  0.31107724D-04  0.13657966D-04  0.00000000D+00  0.00000000D+00
  0.00000000D+00  0.19798165D-04 -0.36737849D-04 -0.32567244D-04  0.00000000D+00
 -0.27227692D-04 -0.26477271D-04 -0.37610389D-04  0.56839397D-04  0.00000000D+00
  0.00000000D+00 -0.53282409D-05 -0.90377050D-05 -0.10289108D-04  0.72584812D-05
MO    7     MO 0.0        OCC NO =    1.0000000  ORB. ENERGY =  -11.440386
 -0.14619879D-01 -0.26970823D-01 -0.43539271D-01 -0.56675194D-01 -0.48361046D-01
 -0.16697907D-01  0.42585030D-03  0.19627401D-03 -0.55037283D-03 -0.19639980D-03
 -0.15058691D-03 -0.75153420D-04 -0.23733305D-03 -0.18197193D-03 -0.90816747D-04
  0.00000000D+00  0.00000000D+00  0.00000000D+00  0.13764482D-02  0.17960402D-03
  0.46787567D-03  0.00000000D+00 -0.57789272D-03 -0.30329734D-03 -0.83348840D-04
 -0.23641991D-03  0.00000000D+00  0.00000000D+00  0.53373351D+00  0.98463410D+00
  0.15895047D+01  0.20690629D+01  0.17655351D+01  0.60959684D+00 -0.10806613D-01
 -0.49807582D-02  0.13966566D-01 -0.71136347D-03 -0.54542839D-03 -0.27220699D-03
  0.34292574D-03  0.26293370D-03  0.13122235D-03  0.00000000D+00  0.00000000D+00
  0.00000000D+00 -0.30165166D-02  0.52529866D-03 -0.28088852D-03  0.00000000D+00
 -0.14353951D-02 -0.12633347D-02 -0.27284738D-02  0.30992402D-03  0.00000000D+00
  0.00000000D+00 -0.14303815D-01 -0.26387746D-01 -0.42598004D-01 -0.55449944D-01
 -0.47315538D-01 -0.16336918D-01  0.43257323D-03  0.19937260D-03 -0.55906159D-03
  0.93598159D-04  0.71765132D-04  0.35815831D-04  0.30057419D-03  0.23046123D-03
  0.11501630D-03  0.00000000D+00  0.00000000D+00  0.00000000D+00  0.14530705D-02