 b3lyp/6-31G* opted                                      
GAUSSIAN             47 MOL ORBITALS    432 PRIMITIVES       24 NUCLEI
  C    1    (CENTRE  1)   0.00000000  6.73064491 -0.55995959  CHARGE =  6.0
  C    2    (CENTRE  2)   0.00000000  5.36177295  1.66122768  CHARGE =  6.0
  C    3    (CENTRE  3)   0.00000000  2.68896347  1.63652040  CHARGE =  6.0
  C    4    (CENTRE  4)   0.00000000  1.37750552 -0.71981416  CHARGE =  6.0
  C    5    (CENTRE  5)   0.00000000  2.83531087 -2.96097213  CHARGE =  6.0
  C    6    (CENTRE  6)   0.00000000  5.44797855 -2.88997164  CHARGE =  6.0
  C    7    (CENTRE  7)   0.00000000  1.28460038  3.95684336  CHARGE =  6.0
  C    8    (CENTRE  8)   0.00000000 -1.37750552 -0.71981416  CHARGE =  6.0
  C    9    (CENTRE  9)   0.00000000 -2.68896347  1.63652040  CHARGE =  6.0
  C   10    (CENTRE 10)   0.00000000 -1.28460038  3.95684336  CHARGE =  6.0
  C   11    (CENTRE 11)   0.00000000 -5.36177295  1.66122768  CHARGE =  6.0
  H   12    (CENTRE 12)   0.00000000 -6.32705150  3.47590161  CHARGE =  1.0
  C   13    (CENTRE 13)   0.00000000 -6.73064491 -0.55995959  CHARGE =  6.0
  C   14    (CENTRE 14)   0.00000000 -5.44797855 -2.88997164  CHARGE =  6.0
  C   15    (CENTRE 15)   0.00000000 -2.83531087 -2.96097213  CHARGE =  6.0
  H   16    (CENTRE 16)   0.00000000  2.32946829  5.72646841  CHARGE =  1.0
  H   17    (CENTRE 17)   0.00000000  8.78354677 -0.51363913  CHARGE =  1.0
  H   18    (CENTRE 18)   0.00000000  6.32705150  3.47590161  CHARGE =  1.0
  H   19    (CENTRE 19)   0.00000000  1.90278474 -4.78657074  CHARGE =  1.0
  H   20    (CENTRE 20)   0.00000000  6.51379343 -4.64540368  CHARGE =  1.0
  H   21    (CENTRE 21)   0.00000000 -2.32946829  5.72646841  CHARGE =  1.0
  H   22    (CENTRE 22)   0.00000000 -8.78354677 -0.51363913  CHARGE =  1.0
  H   23    (CENTRE 23)   0.00000000 -6.51379343 -4.64540368  CHARGE =  1.0
  H   24    (CENTRE 24)   0.00000000 -1.90278474 -4.78657074  CHARGE =  1.0
CENTRE ASSIGNMENTS    1  1  1  1  1  1  1  1  1  1  1  1  1  1  1  1  1  1  1  1
CENTRE ASSIGNMENTS    1  1  1  1  1  1  1  1  2  2  2  2  2  2  2  2  2  2  2  2
CENTRE ASSIGNMENTS    2  2  2  2  2  2  2  2  2  2  2  2  2  2  2  2  3  3  3  3
CENTRE ASSIGNMENTS    3  3  3  3  3  3  3  3  3  3  3  3  3  3  3  3  3  3  3  3
CENTRE ASSIGNMENTS    3  3  3  3  4  4  4  4  4  4  4  4  4  4  4  4  4  4  4  4
CENTRE ASSIGNMENTS    4  4  4  4  4  4  4  4  4  4  4  4  5  5  5  5  5  5  5  5
CENTRE ASSIGNMENTS    5  5  5  5  5  5  5  5  5  5  5  5  5  5  5  5  5  5  5  5
CENTRE ASSIGNMENTS    6  6  6  6  6  6  6  6  6  6  6  6  6  6  6  6  6  6  6  6
CENTRE ASSIGNMENTS    6  6  6  6  6  6  6  6  7  7  7  7  7  7  7  7  7  7  7  7
CENTRE ASSIGNMENTS    7  7  7  7  7  7  7  7  7  7  7  7  7  7  7  7  8  8  8  8
CENTRE ASSIGNMENTS    8  8  8  8  8  8  8  8  8  8  8  8  8  8  8  8  8  8  8  8
CENTRE ASSIGNMENTS    8  8  8  8  9  9  9  9  9  9  9  9  9  9  9  9  9  9  9  9
CENTRE ASSIGNMENTS    9  9  9  9  9  9  9  9  9  9  9  9 10 10 10 10 10 10 10 10
CENTRE ASSIGNMENTS   10 10 10 10 10 10 10 10 10 10 10 10 10 10 10 10 10 10 10 10
CENTRE ASSIGNMENTS   11 11 11 11 11 11 11 11 11 11 11 11 11 11 11 11 11 11 11 11
CENTRE ASSIGNMENTS   11 11 11 11 11 11 11 11 12 12 12 12 13 13 13 13 13 13 13 13
CENTRE ASSIGNMENTS   13 13 13 13 13 13 13 13 13 13 13 13 13 13 13 13 13 13 13 13
CENTRE ASSIGNMENTS   14 14 14 14 14 14 14 14 14 14 14 14 14 14 14 14 14 14 14 14
CENTRE ASSIGNMENTS   14 14 14 14 14 14 14 14 15 15 15 15 15 15 15 15 15 15 15 15
CENTRE ASSIGNMENTS   15 15 15 15 15 15 15 15 15 15 15 15 15 15 15 15 16 16 16 16
CENTRE ASSIGNMENTS   17 17 17 17 18 18 18 18 19 19 19 19 20 20 20 20 21 21 21 21
CENTRE ASSIGNMENTS   22 22 22 22 23 23 23 23 24 24 24 24
TYPE ASSIGNMENTS      1  1  1  1  1  1  1  1  1  2  2  2  3  3  3  4  4  4  1  2
TYPE ASSIGNMENTS      3  4  5  6  7  8  9 10  1  1  1  1  1  1  1  1  1  2  2  2
TYPE ASSIGNMENTS      3  3  3  4  4  4  1  2  3  4  5  6  7  8  9 10  1  1  1  1
TYPE ASSIGNMENTS      1  1  1  1  1  2  2  2  3  3  3  4  4  4  1  2  3  4  5  6
TYPE ASSIGNMENTS      7  8  9 10  1  1  1  1  1  1  1  1  1  2  2  2  3  3  3  4
TYPE ASSIGNMENTS      4  4  1  2  3  4  5  6  7  8  9 10  1  1  1  1  1  1  1  1
TYPE ASSIGNMENTS      1  2  2  2  3  3  3  4  4  4  1  2  3  4  5  6  7  8  9 10
TYPE ASSIGNMENTS      1  1  1  1  1  1  1  1  1  2  2  2  3  3  3  4  4  4  1  2
TYPE ASSIGNMENTS      3  4  5  6  7  8  9 10  1  1  1  1  1  1  1  1  1  2  2  2
TYPE ASSIGNMENTS      3  3  3  4  4  4  1  2  3  4  5  6  7  8  9 10  1  1  1  1
TYPE ASSIGNMENTS      1  1  1  1  1  2  2  2  3  3  3  4  4  4  1  2  3  4  5  6
TYPE ASSIGNMENTS      7  8  9 10  1  1  1  1  1  1  1  1  1  2  2  2  3  3  3  4
TYPE ASSIGNMENTS      4  4  1  2  3  4  5  6  7  8  9 10  1  1  1  1  1  1  1  1
TYPE ASSIGNMENTS      1  2  2  2  3  3  3  4  4  4  1  2  3  4  5  6  7  8  9 10
TYPE ASSIGNMENTS      1  1  1  1  1  1  1  1  1  2  2  2  3  3  3  4  4  4  1  2
TYPE ASSIGNMENTS      3  4  5  6  7  8  9 10  1  1  1  1  1  1  1  1  1  1  1  1
TYPE ASSIGNMENTS      1  2  2  2  3  3  3  4  4  4  1  2  3  4  5  6  7  8  9 10
TYPE ASSIGNMENTS      1  1  1  1  1  1  1  1  1  2  2  2  3  3  3  4  4  4  1  2
TYPE ASSIGNMENTS      3  4  5  6  7  8  9 10  1  1  1  1  1  1  1  1  1  2  2  2
TYPE ASSIGNMENTS      3  3  3  4  4  4  1  2  3  4  5  6  7  8  9 10  1  1  1  1
TYPE ASSIGNMENTS      1  1  1  1  1  1  1  1  1  1  1  1  1  1  1  1  1  1  1  1
TYPE ASSIGNMENTS      1  1  1  1  1  1  1  1  1  1  1  1
EXPONENTS  0.3047525D+04 0.4573695D+03 0.1039487D+03 0.2921016D+02 0.9286663D+01
EXPONENTS  0.3163927D+01 0.7868272D+01 0.1881289D+01 0.5442493D+00 0.7868272D+01
EXPONENTS  0.1881289D+01 0.5442493D+00 0.7868272D+01 0.1881289D+01 0.5442493D+00
EXPONENTS  0.7868272D+01 0.1881289D+01 0.5442493D+00 0.1687145D+00 0.1687145D+00
EXPONENTS  0.1687145D+00 0.1687145D+00 0.8000000D+00 0.8000000D+00 0.8000000D+00
EXPONENTS  0.8000000D+00 0.8000000D+00 0.8000000D+00 0.3047525D+04 0.4573695D+03
EXPONENTS  0.1039487D+03 0.2921016D+02 0.9286663D+01 0.3163927D+01 0.7868272D+01
EXPONENTS  0.1881289D+01 0.5442493D+00 0.7868272D+01 0.1881289D+01 0.5442493D+00
EXPONENTS  0.7868272D+01 0.1881289D+01 0.5442493D+00 0.7868272D+01 0.1881289D+01
EXPONENTS  0.5442493D+00 0.1687145D+00 0.1687145D+00 0.1687145D+00 0.1687145D+00
EXPONENTS  0.8000000D+00 0.8000000D+00 0.8000000D+00 0.8000000D+00 0.8000000D+00
EXPONENTS  0.8000000D+00 0.3047525D+04 0.4573695D+03 0.1039487D+03 0.2921016D+02
EXPONENTS  0.9286663D+01 0.3163927D+01 0.7868272D+01 0.1881289D+01 0.5442493D+00
EXPONENTS  0.7868272D+01 0.1881289D+01 0.5442493D+00 0.7868272D+01 0.1881289D+01
EXPONENTS  0.5442493D+00 0.7868272D+01 0.1881289D+01 0.5442493D+00 0.1687145D+00
EXPONENTS  0.1687145D+00 0.1687145D+00 0.1687145D+00 0.8000000D+00 0.8000000D+00
EXPONENTS  0.8000000D+00 0.8000000D+00 0.8000000D+00 0.8000000D+00 0.3047525D+04
EXPONENTS  0.4573695D+03 0.1039487D+03 0.2921016D+02 0.9286663D+01 0.3163927D+01
EXPONENTS  0.7868272D+01 0.1881289D+01 0.5442493D+00 0.7868272D+01 0.1881289D+01
EXPONENTS  0.5442493D+00 0.7868272D+01 0.1881289D+01 0.5442493D+00 0.7868272D+01
EXPONENTS  0.1881289D+01 0.5442493D+00 0.1687145D+00 0.1687145D+00 0.1687145D+00
EXPONENTS  0.1687145D+00 0.8000000D+00 0.8000000D+00 0.8000000D+00 0.8000000D+00
EXPONENTS  0.8000000D+00 0.8000000D+00 0.3047525D+04 0.4573695D+03 0.1039487D+03
EXPONENTS  0.2921016D+02 0.9286663D+01 0.3163927D+01 0.7868272D+01 0.1881289D+01
EXPONENTS  0.5442493D+00 0.7868272D+01 0.1881289D+01 0.5442493D+00 0.7868272D+01
EXPONENTS  0.1881289D+01 0.5442493D+00 0.7868272D+01 0.1881289D+01 0.5442493D+00
EXPONENTS  0.1687145D+00 0.1687145D+00 0.1687145D+00 0.1687145D+00 0.8000000D+00
EXPONENTS  0.8000000D+00 0.8000000D+00 0.8000000D+00 0.8000000D+00 0.8000000D+00
EXPONENTS  0.3047525D+04 0.4573695D+03 0.1039487D+03 0.2921016D+02 0.9286663D+01
EXPONENTS  0.3163927D+01 0.7868272D+01 0.1881289D+01 0.5442493D+00 0.7868272D+01
EXPONENTS  0.1881289D+01 0.5442493D+00 0.7868272D+01 0.1881289D+01 0.5442493D+00
EXPONENTS  0.7868272D+01 0.1881289D+01 0.5442493D+00 0.1687145D+00 0.1687145D+00
EXPONENTS  0.1687145D+00 0.1687145D+00 0.8000000D+00 0.8000000D+00 0.8000000D+00
EXPONENTS  0.8000000D+00 0.8000000D+00 0.8000000D+00 0.3047525D+04 0.4573695D+03
EXPONENTS  0.1039487D+03 0.2921016D+02 0.9286663D+01 0.3163927D+01 0.7868272D+01
EXPONENTS  0.1881289D+01 0.5442493D+00 0.7868272D+01 0.1881289D+01 0.5442493D+00
EXPONENTS  0.7868272D+01 0.1881289D+01 0.5442493D+00 0.7868272D+01 0.1881289D+01
EXPONENTS  0.5442493D+00 0.1687145D+00 0.1687145D+00 0.1687145D+00 0.1687145D+00
EXPONENTS  0.8000000D+00 0.8000000D+00 0.8000000D+00 0.8000000D+00 0.8000000D+00
EXPONENTS  0.8000000D+00 0.3047525D+04 0.4573695D+03 0.1039487D+03 0.2921016D+02
EXPONENTS  0.9286663D+01 0.3163927D+01 0.7868272D+01 0.1881289D+01 0.5442493D+00
EXPONENTS  0.7868272D+01 0.1881289D+01 0.5442493D+00 0.7868272D+01 0.1881289D+01
EXPONENTS  0.5442493D+00 0.7868272D+01 0.1881289D+01 0.5442493D+00 0.1687145D+00
EXPONENTS  0.1687145D+00 0.1687145D+00 0.1687145D+00 0.8000000D+00 0.8000000D+00
EXPONENTS  0.8000000D+00 0.8000000D+00 0.8000000D+00 0.8000000D+00 0.3047525D+04
EXPONENTS  0.4573695D+03 0.1039487D+03 0.2921016D+02 0.9286663D+01 0.3163927D+01
EXPONENTS  0.7868272D+01 0.1881289D+01 0.5442493D+00 0.7868272D+01 0.1881289D+01
EXPONENTS  0.5442493D+00 0.7868272D+01 0.1881289D+01 0.5442493D+00 0.7868272D+01
EXPONENTS  0.1881289D+01 0.5442493D+00 0.1687145D+00 0.1687145D+00 0.1687145D+00
EXPONENTS  0.1687145D+00 0.8000000D+00 0.8000000D+00 0.8000000D+00 0.8000000D+00
EXPONENTS  0.8000000D+00 0.8000000D+00 0.3047525D+04 0.4573695D+03 0.1039487D+03
EXPONENTS  0.2921016D+02 0.9286663D+01 0.3163927D+01 0.7868272D+01 0.1881289D+01
EXPONENTS  0.5442493D+00 0.7868272D+01 0.1881289D+01 0.5442493D+00 0.7868272D+01
EXPONENTS  0.1881289D+01 0.5442493D+00 0.7868272D+01 0.1881289D+01 0.5442493D+00
EXPONENTS  0.1687145D+00 0.1687145D+00 0.1687145D+00 0.1687145D+00 0.8000000D+00
EXPONENTS  0.8000000D+00 0.8000000D+00 0.8000000D+00 0.8000000D+00 0.8000000D+00
EXPONENTS  0.3047525D+04 0.4573695D+03 0.1039487D+03 0.2921016D+02 0.9286663D+01
EXPONENTS  0.3163927D+01 0.7868272D+01 0.1881289D+01 0.5442493D+00 0.7868272D+01
EXPONENTS  0.1881289D+01 0.5442493D+00 0.7868272D+01 0.1881289D+01 0.5442493D+00
EXPONENTS  0.7868272D+01 0.1881289D+01 0.5442493D+00 0.1687145D+00 0.1687145D+00
EXPONENTS  0.1687145D+00 0.1687145D+00 0.8000000D+00 0.8000000D+00 0.8000000D+00
EXPONENTS  0.8000000D+00 0.8000000D+00 0.8000000D+00 0.1873114D+02 0.2825394D+01
EXPONENTS  0.6401217D+00 0.1612778D+00 0.3047525D+04 0.4573695D+03 0.1039487D+03
EXPONENTS  0.2921016D+02 0.9286663D+01 0.3163927D+01 0.7868272D+01 0.1881289D+01
EXPONENTS  0.5442493D+00 0.7868272D+01 0.1881289D+01 0.5442493D+00 0.7868272D+01
EXPONENTS  0.1881289D+01 0.5442493D+00 0.7868272D+01 0.1881289D+01 0.5442493D+00
EXPONENTS  0.1687145D+00 0.1687145D+00 0.1687145D+00 0.1687145D+00 0.8000000D+00
EXPONENTS  0.8000000D+00 0.8000000D+00 0.8000000D+00 0.8000000D+00 0.8000000D+00
EXPONENTS  0.3047525D+04 0.4573695D+03 0.1039487D+03 0.2921016D+02 0.9286663D+01
EXPONENTS  0.3163927D+01 0.7868272D+01 0.1881289D+01 0.5442493D+00 0.7868272D+01
EXPONENTS  0.1881289D+01 0.5442493D+00 0.7868272D+01 0.1881289D+01 0.5442493D+00
EXPONENTS  0.7868272D+01 0.1881289D+01 0.5442493D+00 0.1687145D+00 0.1687145D+00
EXPONENTS  0.1687145D+00 0.1687145D+00 0.8000000D+00 0.8000000D+00 0.8000000D+00
EXPONENTS  0.8000000D+00 0.8000000D+00 0.8000000D+00 0.3047525D+04 0.4573695D+03
EXPONENTS  0.1039487D+03 0.2921016D+02 0.9286663D+01 0.3163927D+01 0.7868272D+01
EXPONENTS  0.1881289D+01 0.5442493D+00 0.7868272D+01 0.1881289D+01 0.5442493D+00
EXPONENTS  0.7868272D+01 0.1881289D+01 0.5442493D+00 0.7868272D+01 0.1881289D+01
EXPONENTS  0.5442493D+00 0.1687145D+00 0.1687145D+00 0.1687145D+00 0.1687145D+00
EXPONENTS  0.8000000D+00 0.8000000D+00 0.8000000D+00 0.8000000D+00 0.8000000D+00
EXPONENTS  0.8000000D+00 0.1873114D+02 0.2825394D+01 0.6401217D+00 0.1612778D+00
EXPONENTS  0.1873114D+02 0.2825394D+01 0.6401217D+00 0.1612778D+00 0.1873114D+02
EXPONENTS  0.2825394D+01 0.6401217D+00 0.1612778D+00 0.1873114D+02 0.2825394D+01
EXPONENTS  0.6401217D+00 0.1612778D+00 0.1873114D+02 0.2825394D+01 0.6401217D+00
EXPONENTS  0.1612778D+00 0.1873114D+02 0.2825394D+01 0.6401217D+00 0.1612778D+00
EXPONENTS  0.1873114D+02 0.2825394D+01 0.6401217D+00 0.1612778D+00 0.1873114D+02
EXPONENTS  0.2825394D+01 0.6401217D+00 0.1612778D+00 0.1873114D+02 0.2825394D+01
EXPONENTS  0.6401217D+00 0.1612778D+00
MO    1     MO 0.0        OCC NO =    2.0000000  ORB. ENERGY =  -10.199544
 -0.86381394D-04 -0.15935681D-03 -0.25725129D-03 -0.33486475D-03 -0.28574070D-03
 -0.98659396D-04  0.41728367D-04  0.19232566D-04 -0.53930123D-04  0.00000000D+00
  0.00000000D+00  0.00000000D+00  0.28726271D-04  0.22025483D-04  0.10992259D-04
 -0.45332068D-05 -0.34757754D-05 -0.17346555D-05  0.24081140D-03  0.00000000D+00
 -0.10786348D-03  0.95018775D-05 -0.45601313D-04 -0.54437708D-05  0.42328658D-05
  0.00000000D+00  0.00000000D+00 -0.24800155D-06  0.62040480D-03  0.11445257D-02
  0.18476194D-02  0.24050514D-02  0.20522348D-02  0.70858734D-03 -0.23941420D-05
 -0.11034579D-05  0.30942110D-05  0.00000000D+00  0.00000000D+00  0.00000000D+00
  0.23329914D-04  0.17887898D-04  0.89273148D-05  0.10064021D-04  0.77164530D-05
  0.38510508D-05 -0.11181650D-03  0.00000000D+00 -0.14388411D-04  0.11860778D-03
 -0.23245127D-04  0.32442333D-04  0.50638995D-05  0.00000000D+00  0.00000000D+00
  0.23179019D-04  0.27605039D-01  0.50925907D-01  0.82210203D-01  0.10701326D+00
  0.91314607D-01  0.31528739D-01 -0.88779776D-03 -0.40918518D-03  0.11473980D-02
  0.00000000D+00  0.00000000D+00  0.00000000D+00  0.18799127D-03  0.14413978D-03
  0.71935853D-04  0.28286490D-03  0.21688287D-03  0.10823975D-03  0.59564881D-03
  0.00000000D+00 -0.12324912D-03 -0.33695408D-03 -0.69004416D-03 -0.74385061D-03
 -0.81008889D-03  0.00000000D+00  0.00000000D+00 -0.12947301D-03  0.37535279D+00
  0.69245261D+00  0.11178332D+01  0.14550867D+01  0.12416281D+01  0.42870435D+00
 -0.13905634D-01 -0.64090942D-02  0.17971769D-01  0.00000000D+00  0.00000000D+00
  0.00000000D+00  0.30356694D-03  0.23275588D-03  0.11616150D-03  0.23421518D-04
  0.17958134D-04  0.89623675D-05 -0.18748107D-02  0.00000000D+00 -0.32209759D-03
 -0.68339899D-04 -0.75122961D-02 -0.76017784D-02 -0.73618660D-02  0.00000000D+00
  0.00000000D+00 -0.84302363D-04  0.86308440D-02  0.15922222D-01  0.25703403D-01
  0.33458193D-01  0.28549937D-01  0.98576072D-02 -0.18199117D-03 -0.83879565D-04
  0.23520706D-03  0.00000000D+00  0.00000000D+00  0.00000000D+00  0.16849735D-03
  0.12919308D-03  0.64476400D-04 -0.27552704D-03 -0.21125666D-03 -0.10543188D-03
  0.67451051D-03  0.00000000D+00 -0.30991393D-04  0.25559374D-03 -0.30827678D-03
 -0.38903112D-03 -0.42760772D-03  0.00000000D+00  0.00000000D+00  0.17607253D-03
  0.23846384D-03  0.43991921D-03  0.71016601D-03  0.92442514D-03  0.78881365D-03
  0.27235840D-03 -0.10525149D-06 -0.48510315D-07  0.13602799D-06  0.00000000D+00
  0.00000000D+00  0.00000000D+00  0.21850983D-04  0.16753948D-04  0.83613941D-05
 -0.34160018D-05 -0.26191735D-05 -0.13071511D-05 -0.21333215D-03  0.00000000D+00
  0.42996931D-04 -0.93050572D-04 -0.66877642D-05  0.60261614D-04  0.18015580D-04
  0.00000000D+00  0.00000000D+00 -0.37697515D-04  0.46254991D-03  0.85331426D-03
  0.13775138D-02  0.17931137D-02  0.15300671D-02  0.52829541D-03  0.18306387D-04
  0.84373969D-05 -0.23659342D-04  0.00000000D+00  0.00000000D+00  0.00000000D+00
 -0.11084063D-05 -0.84985566D-06 -0.42413754D-06  0.59337327D-04  0.45496099D-04
  0.22705742D-04  0.86225230D-04  0.00000000D+00  0.43545428D-04 -0.71026856D-05
 -0.44271079D-04  0.11572487D-04  0.72692364D-05  0.00000000D+00  0.00000000D+00
 -0.79566001D-05  0.37535279D+00  0.69245261D+00  0.11178332D+01  0.14550867D+01
  0.12416281D+01  0.42870435D+00 -0.13905634D-01 -0.64090942D-02  0.17971769D-01
  0.00000000D+00  0.00000000D+00  0.00000000D+00 -0.30356694D-03 -0.23275588D-03
 -0.11616150D-03  0.23421518D-04  0.17958134D-04  0.89623675D-05 -0.18748107D-02
  0.00000000D+00  0.32209759D-03 -0.68339899D-04 -0.75122961D-02 -0.76017784D-02
 -0.73618660D-02  0.00000000D+00  0.00000000D+00  0.84302363D-04  0.27605039D-01
  0.50925907D-01  0.82210203D-01  0.10701326D+00  0.91314607D-01  0.31528739D-01
 -0.88779776D-03 -0.40918518D-03  0.11473980D-02  0.00000000D+00  0.00000000D+00
  0.00000000D+00 -0.18799127D-03 -0.14413978D-03 -0.71935853D-04  0.28286490D-03
  0.21688287D-03  0.10823975D-03  0.59564881D-03  0.00000000D+00  0.12324912D-03
 -0.33695408D-03 -0.69004416D-03 -0.74385061D-03 -0.81008889D-03  0.00000000D+00
  0.00000000D+00  0.12947301D-03  0.46254991D-03  0.85331426D-03  0.13775138D-02
  0.17931137D-02  0.15300671D-02  0.52829541D-03  0.18306387D-04  0.84373969D-05
 -0.23659342D-04  0.00000000D+00  0.00000000D+00  0.00000000D+00  0.11084063D-05
  0.84985566D-06  0.42413754D-06  0.59337327D-04  0.45496099D-04  0.22705742D-04
  0.86225230D-04  0.00000000D+00 -0.43545428D-04 -0.71026856D-05 -0.44271079D-04
  0.11572487D-04  0.72692364D-05  0.00000000D+00  0.00000000D+00  0.79566001D-05
  0.62040480D-03  0.11445257D-02  0.18476194D-02  0.24050514D-02  0.20522348D-02
  0.70858734D-03 -0.23941420D-05 -0.11034579D-05  0.30942110D-05  0.00000000D+00
  0.00000000D+00  0.00000000D+00 -0.23329914D-04 -0.17887898D-04 -0.89273148D-05
  0.10064021D-04  0.77164530D-05  0.38510508D-05 -0.11181650D-03  0.00000000D+00
  0.14388411D-04  0.11860778D-03 -0.23245127D-04  0.32442333D-04  0.50638995D-05
  0.00000000D+00  0.00000000D+00 -0.23179019D-04 -0.79287015D-05 -0.13448578D-04
 -0.15310731D-04 -0.24225955D-04 -0.86381394D-04 -0.15935681D-03 -0.25725129D-03
 -0.33486475D-03 -0.28574070D-03 -0.98659396D-04  0.41728367D-04  0.19232566D-04
 -0.53930123D-04  0.00000000D+00  0.00000000D+00  0.00000000D+00 -0.28726271D-04
 -0.22025483D-04 -0.10992259D-04 -0.45332068D-05 -0.34757754D-05 -0.17346555D-05
  0.24081140D-03  0.00000000D+00  0.10786348D-03  0.95018775D-05 -0.45601313D-04
 -0.54437708D-05  0.42328658D-05  0.00000000D+00  0.00000000D+00  0.24800155D-06
  0.23846384D-03  0.43991921D-03  0.71016601D-03  0.92442514D-03  0.78881365D-03
  0.27235840D-03 -0.10525149D-06 -0.48510315D-07  0.13602799D-06  0.00000000D+00
  0.00000000D+00  0.00000000D+00 -0.21850983D-04 -0.16753948D-04 -0.83613941D-05
 -0.34160018D-05 -0.26191735D-05 -0.13071511D-05 -0.21333215D-03  0.00000000D+00
 -0.42996931D-04 -0.93050572D-04 -0.66877642D-05  0.60261614D-04  0.18015580D-04
  0.00000000D+00  0.00000000D+00  0.37697515D-04  0.86308440D-02  0.15922222D-01
  0.25703403D-01  0.33458193D-01  0.28549937D-01  0.98576072D-02 -0.18199117D-03
 -0.83879565D-04  0.23520706D-03  0.00000000D+00  0.00000000D+00  0.00000000D+00
 -0.16849735D-03 -0.12919308D-03 -0.64476400D-04 -0.27552704D-03 -0.21125666D-03
 -0.10543188D-03  0.67451051D-03  0.00000000D+00  0.30991393D-04  0.25559374D-03
 -0.30827678D-03 -0.38903112D-03 -0.42760772D-03  0.00000000D+00  0.00000000D+00
 -0.17607253D-03 -0.41938898D-05 -0.71136309D-05 -0.80986174D-05 -0.36342576D-05
  0.26357821D-05  0.44707853D-05  0.50898311D-05  0.33508039D-04 -0.79287015D-05
 -0.13448578D-04 -0.15310731D-04 -0.24225955D-04 -0.77102430D-05 -0.13078032D-04
 -0.14888877D-04  0.30724136D-04 -0.53943103D-05 -0.91497712D-05 -0.10416691D-04
 -0.14620193D-04 -0.41938898D-05 -0.71136309D-05 -0.80986174D-05 -0.36342576D-05
  0.26357821D-05  0.44707853D-05  0.50898311D-05  0.33508039D-04 -0.53943103D-05
 -0.91497712D-05 -0.10416691D-04 -0.14620193D-04 -0.77102430D-05 -0.13078032D-04
 -0.14888877D-04  0.30724136D-04
MO    2     MO 0.0        OCC NO =    2.0000000  ORB. ENERGY =  -10.199198
 -0.97032482D-04 -0.17900598D-03 -0.28897116D-03 -0.37615459D-03 -0.32097339D-03
 -0.11082440D-03  0.48980648D-04  0.22575136D-04 -0.63303037D-04  0.00000000D+00
  0.00000000D+00  0.00000000D+00 -0.10364612D-06 -0.79469272D-07 -0.39660737D-07
 -0.16182643D-04 -0.12407824D-04 -0.61923740D-05  0.41509161D-03  0.00000000D+00
 -0.17561407D-03  0.92351669D-05 -0.40315308D-04 -0.42246383D-05 -0.35361541D-05
  0.00000000D+00  0.00000000D+00  0.66491853D-05  0.74141292D-03  0.13677621D-02
  0.22079921D-02  0.28741496D-02  0.24525171D-02  0.84679521D-03 -0.43681743D-04
 -0.20132875D-04  0.56454684D-04  0.00000000D+00  0.00000000D+00  0.00000000D+00
 -0.37268320D-05 -0.28574984D-05 -0.14260920D-05  0.87109057D-06  0.66789700D-06
  0.33332741D-06 -0.14925327D-03  0.00000000D+00 -0.61967482D-05  0.21835643D-03
  0.17028987D-04  0.36390448D-04  0.16107610D-04  0.00000000D+00  0.00000000D+00
 -0.18426103D-04  0.31352784D-01  0.57839764D-01  0.93371313D-01  0.12154171D+00
  0.10371176D+00  0.35809178D-01 -0.10029353D-02 -0.46225194D-03  0.12962027D-02
  0.00000000D+00  0.00000000D+00  0.00000000D+00  0.15772122D-03  0.12093063D-03
  0.60352859D-04  0.29448436D-03  0.22579193D-03  0.11268600D-03  0.11808420D-02
  0.00000000D+00 -0.39772781D-03 -0.45624670D-03 -0.79002536D-03 -0.87731933D-03
 -0.98269667D-03  0.00000000D+00  0.00000000D+00 -0.14298393D-03  0.37519166D+00
  0.69215535D+00  0.11173534D+01  0.14544621D+01  0.12410951D+01  0.42852032D+00
 -0.14160945D-01 -0.65267667D-02  0.18301735D-01  0.00000000D+00  0.00000000D+00
  0.00000000D+00 -0.36236028D-03 -0.27783488D-03 -0.13865908D-03  0.53616757D-04
  0.41109928D-04  0.20516735D-04 -0.36577148D-02  0.00000000D+00  0.21025727D-03
 -0.34354366D-03 -0.71837352D-02 -0.67570567D-02 -0.69717797D-02  0.00000000D+00
  0.00000000D+00 -0.10500230D-03  0.89822074D-02  0.16570419D-01  0.26749794D-01
  0.34820283D-01  0.29712211D-01  0.10258912D-01 -0.20649029D-03 -0.95171184D-04
  0.26686993D-03  0.00000000D+00  0.00000000D+00  0.00000000D+00  0.12409697D-03
  0.95149689D-04  0.47486363D-04 -0.34989689D-03 -0.26827874D-03 -0.13388990D-03
  0.75755377D-03  0.00000000D+00 -0.83877369D-05  0.32650982D-03 -0.31070494D-03
 -0.45092868D-03 -0.56599894D-03  0.00000000D+00  0.00000000D+00  0.20415612D-03
  0.28176014D-03  0.51979245D-03  0.83910618D-03  0.10922669D-02  0.93203335D-03
  0.32180872D-03 -0.40550204D-04 -0.18689552D-04  0.52407455D-04  0.00000000D+00
  0.00000000D+00  0.00000000D+00  0.18360519D-04  0.14077681D-04  0.70257496D-05
  0.16910486D-04  0.12965888D-04  0.64708867D-05 -0.37897845D-03  0.00000000D+00
  0.10133197D-03 -0.20050704D-03  0.31940428D-04  0.60507181D-04  0.20858219D-04
  0.00000000D+00  0.00000000D+00  0.45757407D-05  0.72736902D-03  0.13418538D-02
  0.21661681D-02  0.28197072D-02  0.24060613D-02  0.83075515D-03 -0.59863563D-04
 -0.27591062D-04  0.77368217D-04  0.00000000D+00  0.00000000D+00  0.00000000D+00
 -0.15153093D-04 -0.11618430D-04 -0.57984110D-05  0.15428659D-04  0.11829717D-04
  0.59038580D-05 -0.43766355D-03  0.00000000D+00  0.23647539D-03  0.17971666D-03
  0.30731162D-04  0.24038998D-04  0.21270142D-04  0.00000000D+00  0.00000000D+00
 -0.14324903D-04 -0.37519166D+00 -0.69215535D+00 -0.11173534D+01 -0.14544621D+01
 -0.12410951D+01 -0.42852032D+00  0.14160945D-01  0.65267667D-02 -0.18301735D-01
  0.00000000D+00  0.00000000D+00  0.00000000D+00 -0.36236028D-03 -0.27783488D-03
 -0.13865908D-03 -0.53616757D-04 -0.41109928D-04 -0.20516735D-04  0.36577148D-02
  0.00000000D+00  0.21025727D-03  0.34354366D-03  0.71837352D-02  0.67570567D-02
  0.69717797D-02  0.00000000D+00  0.00000000D+00 -0.10500230D-03 -0.31352784D-01
 -0.57839764D-01 -0.93371313D-01 -0.12154171D+00 -0.10371176D+00 -0.35809178D-01
  0.10029353D-02  0.46225194D-03 -0.12962027D-02  0.00000000D+00  0.00000000D+00
  0.00000000D+00  0.15772122D-03  0.12093063D-03  0.60352859D-04 -0.29448436D-03
 -0.22579193D-03 -0.11268600D-03 -0.11808420D-02  0.00000000D+00 -0.39772781D-03
  0.45624670D-03  0.79002536D-03  0.87731933D-03  0.98269667D-03  0.00000000D+00
  0.00000000D+00 -0.14298393D-03 -0.72736902D-03 -0.13418538D-02 -0.21661681D-02
 -0.28197072D-02 -0.24060613D-02 -0.83075515D-03  0.59863563D-04  0.27591062D-04
 -0.77368217D-04  0.00000000D+00  0.00000000D+00  0.00000000D+00 -0.15153093D-04
 -0.11618430D-04 -0.57984110D-05 -0.15428659D-04 -0.11829717D-04 -0.59038580D-05
  0.43766355D-03  0.00000000D+00  0.23647539D-03 -0.17971666D-03 -0.30731162D-04
 -0.24038998D-04 -0.21270142D-04  0.00000000D+00  0.00000000D+00 -0.14324903D-04
 -0.74141292D-03 -0.13677621D-02 -0.22079921D-02 -0.28741496D-02 -0.24525171D-02
 -0.84679521D-03  0.43681743D-04  0.20132875D-04 -0.56454684D-04  0.00000000D+00
  0.00000000D+00  0.00000000D+00 -0.37268320D-05 -0.28574984D-05 -0.14260920D-05
 -0.87109057D-06 -0.66789700D-06 -0.33332741D-06  0.14925327D-03  0.00000000D+00
 -0.61967482D-05 -0.21835643D-03 -0.17028987D-04 -0.36390448D-04 -0.16107610D-04
  0.00000000D+00  0.00000000D+00 -0.18426103D-04  0.14288287D-04  0.24235639D-04
  0.27591418D-04  0.64757970D-04  0.97032482D-04  0.17900598D-03  0.28897116D-03
  0.37615459D-03  0.32097339D-03  0.11082440D-03 -0.48980648D-04 -0.22575136D-04
  0.63303037D-04  0.00000000D+00  0.00000000D+00  0.00000000D+00 -0.10364612D-06
 -0.79469272D-07 -0.39660737D-07  0.16182643D-04  0.12407824D-04  0.61923740D-05
 -0.41509161D-03  0.00000000D+00 -0.17561407D-03 -0.92351669D-05  0.40315308D-04
  0.42246383D-05  0.35361541D-05  0.00000000D+00  0.00000000D+00  0.66491853D-05
 -0.28176014D-03 -0.51979245D-03 -0.83910618D-03 -0.10922669D-02 -0.93203335D-03
 -0.32180872D-03  0.40550204D-04  0.18689552D-04 -0.52407455D-04  0.00000000D+00
  0.00000000D+00  0.00000000D+00  0.18360519D-04  0.14077681D-04  0.70257496D-05
 -0.16910486D-04 -0.12965888D-04 -0.64708867D-05  0.37897845D-03  0.00000000D+00
  0.10133197D-03  0.20050704D-03 -0.31940428D-04 -0.60507181D-04 -0.20858219D-04
  0.00000000D+00  0.00000000D+00  0.45757407D-05 -0.89822074D-02 -0.16570419D-01
 -0.26749794D-01 -0.34820283D-01 -0.29712211D-01 -0.10258912D-01  0.20649029D-03
  0.95171184D-04 -0.26686993D-03  0.00000000D+00  0.00000000D+00  0.00000000D+00
  0.12409697D-03  0.95149689D-04  0.47486363D-04  0.34989689D-03  0.26827874D-03
  0.13388990D-03 -0.75755377D-03  0.00000000D+00 -0.83877369D-05 -0.32650982D-03
  0.31070494D-03  0.45092868D-03  0.56599894D-03  0.00000000D+00  0.00000000D+00
  0.20415612D-03 -0.13923152D-04 -0.23616301D-04 -0.26886324D-04 -0.81995611D-04
  0.40280735D-05  0.68323750D-05  0.77784174D-05  0.46756679D-04 -0.14288287D-04
 -0.24235639D-04 -0.27591418D-04 -0.64757970D-04 -0.10248431D-05 -0.17383279D-05
 -0.19790249D-05  0.75305539D-04 -0.11696245D-04 -0.19839045D-04 -0.22586052D-04
 -0.63342422D-04  0.13923152D-04  0.23616301D-04  0.26886324D-04  0.81995611D-04
 -0.40280735D-05 -0.68323750D-05 -0.77784174D-05 -0.46756679D-04  0.11696245D-04
  0.19839045D-04  0.22586052D-04  0.63342422D-04  0.10248431D-05  0.17383279D-05
  0.19790249D-05 -0.75305539D-04
MO    3     MO 0.0        OCC NO =    2.0000000  ORB. ENERGY =  -10.196556
  0.49010044D-03  0.90413961D-03  0.14595617D-02  0.18999156D-02  0.16212014D-02
  0.55976190D-03 -0.21501511D-04 -0.99100269D-05  0.27788750D-04  0.00000000D+00
  0.00000000D+00  0.00000000D+00  0.12030996D-04  0.92246049D-05  0.46037243D-05
 -0.10582050D-04 -0.81136445D-05 -0.40492773D-05 -0.26819080D-03  0.00000000D+00
  0.12741618D-03  0.31567592D-05  0.25475128D-05  0.34820615D-04  0.43778193D-04
  0.00000000D+00  0.00000000D+00 -0.51947362D-04  0.11865726D-01  0.21889947D-01
  0.35337161D-01  0.45998484D-01  0.39250590D-01  0.13552286D-01 -0.32006229D-03
 -0.14751642D-03  0.41365144D-03  0.00000000D+00  0.00000000D+00  0.00000000D+00
  0.37086882D-03  0.28435869D-03  0.14191491D-03  0.42209364D-04  0.32363463D-04
  0.16151636D-04  0.48860519D-03  0.00000000D+00 -0.15771575D-03 -0.13560228D-03
 -0.37305655D-03 -0.65971915D-03 -0.43441160D-03  0.00000000D+00  0.00000000D+00
  0.21841045D-04  0.37491551D+00  0.69164591D+00  0.11165310D+01  0.14533916D+01
  0.12401816D+01  0.42820492D+00 -0.14095770D-01 -0.64967275D-02  0.18217502D-01
  0.00000000D+00  0.00000000D+00  0.00000000D+00 -0.12798549D-03 -0.98131155D-04
 -0.48974324D-04 -0.46134254D-04 -0.35372820D-04 -0.17653516D-04 -0.32232762D-02
  0.00000000D+00  0.53896207D-03  0.20533138D-03 -0.73127150D-02 -0.70880689D-02
 -0.71510288D-02  0.00000000D+00  0.00000000D+00 -0.16973951D-04 -0.31538666D-01
 -0.58182681D-01 -0.93924887D-01 -0.12226229D+00 -0.10432664D+00 -0.36021481D-01
  0.13771707D-02  0.63473672D-03 -0.17798680D-02  0.00000000D+00  0.00000000D+00
  0.00000000D+00 -0.11771951D-03 -0.90259857D-04 -0.45045995D-04 -0.32452305D-03
 -0.24882369D-03 -0.12418046D-03  0.17954993D-02  0.00000000D+00 -0.41552390D-04
  0.74882479D-03  0.41651085D-03  0.28307403D-03  0.22351688D-03  0.00000000D+00
  0.00000000D+00 -0.12679346D-03 -0.10322025D-02 -0.19042121D-02 -0.30739887D-02
 -0.40014200D-02 -0.34144189D-02 -0.11789168D-02  0.27889425D-04  0.12854210D-04
 -0.36044548D-04  0.00000000D+00  0.00000000D+00  0.00000000D+00 -0.55862633D-04
 -0.42831923D-04 -0.21376132D-04  0.64569219D-04  0.49507582D-04  0.24707753D-04
 -0.20662450D-04  0.00000000D+00 -0.10509238D-03 -0.49286978D-04  0.52851443D-04
  0.10469977D-03  0.14142595D-03  0.00000000D+00  0.00000000D+00 -0.43347108D-04
 -0.18511390D-03 -0.34149900D-03 -0.55128527D-03 -0.71760962D-03 -0.61233759D-03
 -0.21142545D-03  0.40992070D-04  0.18893207D-04 -0.52978526D-04  0.00000000D+00
  0.00000000D+00  0.00000000D+00  0.28569231D-04  0.21905074D-04  0.10932167D-04
 -0.14655832D-04 -0.11237162D-04 -0.56081315D-05  0.24590700D-03  0.00000000D+00
 -0.64827315D-04  0.98888310D-04 -0.39128257D-04 -0.21417235D-04 -0.37032536D-05
  0.00000000D+00  0.00000000D+00 -0.14936150D-06  0.10086165D-01  0.18607005D-01
  0.30037475D-01  0.39099868D-01  0.33363988D-01  0.11519783D-01 -0.21239882D-03
 -0.97894423D-04  0.27450618D-03  0.00000000D+00  0.00000000D+00  0.00000000D+00