 hf/6-31G* opt=tight                                     
GAUSSIAN             25 MOL ORBITALS    220 PRIMITIVES       13 NUCLEI
  C    1    (CENTRE  1)   0.03513368 -3.48511404  0.00000000  CHARGE =  6.0
  C    2    (CENTRE  2)   2.28673294 -2.13690221  0.00000000  CHARGE =  6.0
  C    3    (CENTRE  3)   2.28390030  0.47369586  0.00000000  CHARGE =  6.0
  C    4    (CENTRE  4)   0.00000000  1.76569978  0.00000000  CHARGE =  6.0
  C    5    (CENTRE  5)  -2.25885015  0.44196179  0.00000000  CHARGE =  6.0
  C    6    (CENTRE  6)  -2.22815538 -2.17921686  0.00000000  CHARGE =  6.0
  H    7    (CENTRE  7)   0.05205235 -5.51589500  0.00000000  CHARGE =  1.0
  H    8    (CENTRE  8)   4.06090230 -3.12862107  0.00000000  CHARGE =  1.0
  H    9    (CENTRE  9)   4.01377830  1.53568034  0.00000000  CHARGE =  1.0
  H   10    (CENTRE 10)  -4.03008098  1.44561238  0.00000000  CHARGE =  1.0
  H   11    (CENTRE 11)  -3.99005101 -3.19245207  0.00000000  CHARGE =  1.0
  O   12    (CENTRE 12)   0.09237176  4.32043754  0.00000000  CHARGE =  8.0
  H   13    (CENTRE 13)  -1.55814338  5.01142917  0.00000000  CHARGE =  1.0
CENTRE ASSIGNMENTS    1  1  1  1  1  1  1  1  1  1  1  1  1  1  1  1  1  1  1  1
CENTRE ASSIGNMENTS    1  1  1  1  1  1  1  1  2  2  2  2  2  2  2  2  2  2  2  2
CENTRE ASSIGNMENTS    2  2  2  2  2  2  2  2  2  2  2  2  2  2  2  2  3  3  3  3
CENTRE ASSIGNMENTS    3  3  3  3  3  3  3  3  3  3  3  3  3  3  3  3  3  3  3  3
CENTRE ASSIGNMENTS    3  3  3  3  4  4  4  4  4  4  4  4  4  4  4  4  4  4  4  4
CENTRE ASSIGNMENTS    4  4  4  4  4  4  4  4  4  4  4  4  5  5  5  5  5  5  5  5
CENTRE ASSIGNMENTS    5  5  5  5  5  5  5  5  5  5  5  5  5  5  5  5  5  5  5  5
CENTRE ASSIGNMENTS    6  6  6  6  6  6  6  6  6  6  6  6  6  6  6  6  6  6  6  6
CENTRE ASSIGNMENTS    6  6  6  6  6  6  6  6  7  7  7  7  8  8  8  8  9  9  9  9
CENTRE ASSIGNMENTS   10 10 10 10 11 11 11 11 12 12 12 12 12 12 12 12 12 12 12 12
CENTRE ASSIGNMENTS   12 12 12 12 12 12 12 12 12 12 12 12 12 12 12 12 13 13 13 13
TYPE ASSIGNMENTS      1  1  1  1  1  1  1  1  1  2  2  2  3  3  3  4  4  4  1  2
TYPE ASSIGNMENTS      3  4  5  6  7  8  9 10  1  1  1  1  1  1  1  1  1  2  2  2
TYPE ASSIGNMENTS      3  3  3  4  4  4  1  2  3  4  5  6  7  8  9 10  1  1  1  1
TYPE ASSIGNMENTS      1  1  1  1  1  2  2  2  3  3  3  4  4  4  1  2  3  4  5  6
TYPE ASSIGNMENTS      7  8  9 10  1  1  1  1  1  1  1  1  1  2  2  2  3  3  3  4
TYPE ASSIGNMENTS      4  4  1  2  3  4  5  6  7  8  9 10  1  1  1  1  1  1  1  1
TYPE ASSIGNMENTS      1  2  2  2  3  3  3  4  4  4  1  2  3  4  5  6  7  8  9 10
TYPE ASSIGNMENTS      1  1  1  1  1  1  1  1  1  2  2  2  3  3  3  4  4  4  1  2
TYPE ASSIGNMENTS      3  4  5  6  7  8  9 10  1  1  1  1  1  1  1  1  1  1  1  1
TYPE ASSIGNMENTS      1  1  1  1  1  1  1  1  1  1  1  1  1  1  1  1  1  2  2  2
TYPE ASSIGNMENTS      3  3  3  4  4  4  1  2  3  4  5  6  7  8  9 10  1  1  1  1
EXPONENTS  0.3047525D+04 0.4573695D+03 0.1039487D+03 0.2921016D+02 0.9286663D+01
EXPONENTS  0.3163927D+01 0.7868272D+01 0.1881289D+01 0.5442493D+00 0.7868272D+01
EXPONENTS  0.1881289D+01 0.5442493D+00 0.7868272D+01 0.1881289D+01 0.5442493D+00
EXPONENTS  0.7868272D+01 0.1881289D+01 0.5442493D+00 0.1687145D+00 0.1687145D+00
EXPONENTS  0.1687145D+00 0.1687145D+00 0.8000000D+00 0.8000000D+00 0.8000000D+00
EXPONENTS  0.8000000D+00 0.8000000D+00 0.8000000D+00 0.3047525D+04 0.4573695D+03
EXPONENTS  0.1039487D+03 0.2921016D+02 0.9286663D+01 0.3163927D+01 0.7868272D+01
EXPONENTS  0.1881289D+01 0.5442493D+00 0.7868272D+01 0.1881289D+01 0.5442493D+00
EXPONENTS  0.7868272D+01 0.1881289D+01 0.5442493D+00 0.7868272D+01 0.1881289D+01
EXPONENTS  0.5442493D+00 0.1687145D+00 0.1687145D+00 0.1687145D+00 0.1687145D+00
EXPONENTS  0.8000000D+00 0.8000000D+00 0.8000000D+00 0.8000000D+00 0.8000000D+00
EXPONENTS  0.8000000D+00 0.3047525D+04 0.4573695D+03 0.1039487D+03 0.2921016D+02
EXPONENTS  0.9286663D+01 0.3163927D+01 0.7868272D+01 0.1881289D+01 0.5442493D+00
EXPONENTS  0.7868272D+01 0.1881289D+01 0.5442493D+00 0.7868272D+01 0.1881289D+01
EXPONENTS  0.5442493D+00 0.7868272D+01 0.1881289D+01 0.5442493D+00 0.1687145D+00
EXPONENTS  0.1687145D+00 0.1687145D+00 0.1687145D+00 0.8000000D+00 0.8000000D+00
EXPONENTS  0.8000000D+00 0.8000000D+00 0.8000000D+00 0.8000000D+00 0.3047525D+04
EXPONENTS  0.4573695D+03 0.1039487D+03 0.2921016D+02 0.9286663D+01 0.3163927D+01
EXPONENTS  0.7868272D+01 0.1881289D+01 0.5442493D+00 0.7868272D+01 0.1881289D+01
EXPONENTS  0.5442493D+00 0.7868272D+01 0.1881289D+01 0.5442493D+00 0.7868272D+01
EXPONENTS  0.1881289D+01 0.5442493D+00 0.1687145D+00 0.1687145D+00 0.1687145D+00
EXPONENTS  0.1687145D+00 0.8000000D+00 0.8000000D+00 0.8000000D+00 0.8000000D+00
EXPONENTS  0.8000000D+00 0.8000000D+00 0.3047525D+04 0.4573695D+03 0.1039487D+03
EXPONENTS  0.2921016D+02 0.9286663D+01 0.3163927D+01 0.7868272D+01 0.1881289D+01
EXPONENTS  0.5442493D+00 0.7868272D+01 0.1881289D+01 0.5442493D+00 0.7868272D+01
EXPONENTS  0.1881289D+01 0.5442493D+00 0.7868272D+01 0.1881289D+01 0.5442493D+00
EXPONENTS  0.1687145D+00 0.1687145D+00 0.1687145D+00 0.1687145D+00 0.8000000D+00
EXPONENTS  0.8000000D+00 0.8000000D+00 0.8000000D+00 0.8000000D+00 0.8000000D+00
EXPONENTS  0.3047525D+04 0.4573695D+03 0.1039487D+03 0.2921016D+02 0.9286663D+01
EXPONENTS  0.3163927D+01 0.7868272D+01 0.1881289D+01 0.5442493D+00 0.7868272D+01
EXPONENTS  0.1881289D+01 0.5442493D+00 0.7868272D+01 0.1881289D+01 0.5442493D+00
EXPONENTS  0.7868272D+01 0.1881289D+01 0.5442493D+00 0.1687145D+00 0.1687145D+00
EXPONENTS  0.1687145D+00 0.1687145D+00 0.8000000D+00 0.8000000D+00 0.8000000D+00
EXPONENTS  0.8000000D+00 0.8000000D+00 0.8000000D+00 0.1873114D+02 0.2825394D+01
EXPONENTS  0.6401217D+00 0.1612778D+00 0.1873114D+02 0.2825394D+01 0.6401217D+00
EXPONENTS  0.1612778D+00 0.1873114D+02 0.2825394D+01 0.6401217D+00 0.1612778D+00
EXPONENTS  0.1873114D+02 0.2825394D+01 0.6401217D+00 0.1612778D+00 0.1873114D+02
EXPONENTS  0.2825394D+01 0.6401217D+00 0.1612778D+00 0.5484672D+04 0.8252349D+03
EXPONENTS  0.1880470D+03 0.5296450D+02 0.1689757D+02 0.5799635D+01 0.1553962D+02
EXPONENTS  0.3599934D+01 0.1013762D+01 0.1553962D+02 0.3599934D+01 0.1013762D+01
EXPONENTS  0.1553962D+02 0.3599934D+01 0.1013762D+01 0.1553962D+02 0.3599934D+01
EXPONENTS  0.1013762D+01 0.2700058D+00 0.2700058D+00 0.2700058D+00 0.2700058D+00
EXPONENTS  0.8000000D+00 0.8000000D+00 0.8000000D+00 0.8000000D+00 0.8000000D+00
EXPONENTS  0.8000000D+00 0.1873114D+02 0.2825394D+01 0.6401217D+00 0.1612778D+00
MO    1     MO 0.0        OCC NO =    2.0000000  ORB. ENERGY =  -20.590845
  0.11012653D-05  0.20316194D-05  0.32796637D-05  0.42691477D-05  0.36428714D-05
  0.12577960D-05 -0.61606749D-05 -0.28394494D-05  0.79621126D-05  0.22292464D-04
  0.17092448D-04  0.85303293D-05  0.81469037D-06  0.62465290D-06  0.31174558D-06
  0.00000000D+00  0.00000000D+00  0.00000000D+00 -0.29404115D-04 -0.22788553D-05
 -0.12791993D-04  0.00000000D+00 -0.14055024D-04  0.71107659D-06  0.67670956D-05
  0.60693894D-05  0.00000000D+00  0.00000000D+00  0.33011675D-05  0.60900094D-05
  0.98311634D-05  0.12797254D-04  0.10919920D-04  0.37703859D-05 -0.12615955D-04
 -0.58146820D-05  0.16304975D-04 -0.65867923D-05 -0.50503346D-05 -0.25204709D-05
 -0.25159737D-05 -0.19290890D-05 -0.96275063D-06  0.00000000D+00  0.00000000D+00
  0.00000000D+00 -0.45091631D-04  0.80093195D-05 -0.28571259D-04  0.00000000D+00
  0.73802624D-05  0.80704499D-05  0.14262852D-04  0.34486160D-04  0.00000000D+00
  0.00000000D+00 -0.39745555D-05 -0.73322788D-05 -0.11836571D-04 -0.15407699D-04
 -0.13147417D-04 -0.45394873D-05 -0.84581232D-06 -0.38983413D-06  0.10931356D-05
 -0.11005124D-04 -0.84380314D-05 -0.42111691D-05  0.16917764D-04  0.12971468D-04
  0.64736717D-05  0.00000000D+00  0.00000000D+00  0.00000000D+00  0.14275156D-03
 -0.18632705D-04 -0.85336641D-05  0.00000000D+00 -0.20239013D-04 -0.56491142D-04
 -0.27787855D-04  0.67929038D-04  0.00000000D+00  0.00000000D+00 -0.59120499D-05
 -0.10906578D-04 -0.17606598D-04 -0.22918559D-04 -0.19556448D-04 -0.67523715D-05
 -0.14377016D-03 -0.66263537D-04  0.18580988D-03  0.69057050D-04  0.52948566D-04
  0.26425045D-04  0.42190415D-03  0.32348934D-03  0.16144385D-03  0.00000000D+00
  0.00000000D+00  0.00000000D+00  0.27942280D-04 -0.15074158D-03 -0.60772904D-04
  0.00000000D+00 -0.67691175D-05 -0.12864964D-03 -0.85155077D-04  0.48327772D-04
  0.00000000D+00  0.00000000D+00  0.49118173D-05  0.90613438D-05  0.14627818D-04
  0.19041073D-04  0.16247782D-04  0.56099688D-05 -0.37910316D-04 -0.17472830D-04
  0.48995640D-04 -0.32680124D-04 -0.25057047D-04 -0.12505222D-04 -0.67896680D-04
 -0.52058868D-04 -0.25981024D-04  0.00000000D+00  0.00000000D+00  0.00000000D+00
 -0.20896996D-03 -0.70963459D-04 -0.56884214D-05  0.00000000D+00 -0.42493777D-05
 -0.96250607D-04  0.25621709D-05 -0.96127936D-04  0.00000000D+00  0.00000000D+00
 -0.28337428D-05 -0.52277021D-05 -0.84391321D-05 -0.10985243D-04 -0.93737273D-05
 -0.32365228D-05  0.11691404D-04  0.53885576D-05 -0.15110078D-04 -0.17696581D-04
 -0.13568616D-04 -0.67716903D-05  0.31802592D-04  0.24384210D-04  0.12169430D-04
  0.00000000D+00  0.00000000D+00  0.00000000D+00  0.62958219D-04  0.33903054D-04
  0.25528883D-04  0.00000000D+00 -0.76892129D-05  0.32459655D-04 -0.12845879D-04
 -0.25365932D-04  0.00000000D+00  0.00000000D+00 -0.33085488D-06 -0.56119250D-06
 -0.63889783D-06 -0.41727107D-05  0.26607518D-06  0.45131387D-06  0.51380489D-06
 -0.61452495D-05  0.42253296D-05  0.71669587D-05  0.81593291D-05 -0.14165886D-04
 -0.22198842D-05 -0.37653438D-05 -0.42867108D-05 -0.70714770D-05  0.32516716D-05
  0.55154505D-05  0.62791454D-05  0.12510969D-04  0.82723559D+00  0.15225551D+01
  0.24637815D+01  0.32387098D+01  0.27778226D+01  0.94978471D+00 -0.13114527D-01
 -0.58516766D-02  0.17280079D-01 -0.35221671D-02 -0.27136398D-02 -0.11914341D-02
 -0.22512807D-02 -0.17344904D-02 -0.76153470D-03  0.00000000D+00  0.00000000D+00
  0.00000000D+00  0.11573612D-02  0.19343149D-03  0.48768803D-04  0.00000000D+00
 -0.46414276D-02 -0.46764582D-02 -0.44313957D-02  0.62385443D-04  0.00000000D+00
  0.00000000D+00  0.93403325D-04  0.15842972D-03  0.18036663D-03 -0.42994376D-04
MO    2     MO 0.0        OCC NO =    2.0000000  ORB. ENERGY =  -11.298141
 -0.10567158D-03 -0.19494343D-03 -0.31469915D-03 -0.40964478D-03 -0.34955064D-03
 -0.12069143D-03  0.11875953D-03  0.54736159D-04 -0.15348590D-03 -0.27496096D-05
 -0.21082262D-05 -0.10521526D-05 -0.80663159D-04 -0.61847394D-04 -0.30866184D-04
  0.00000000D+00  0.00000000D+00  0.00000000D+00  0.81238289D-03 -0.13547911D-04
  0.41953341D-03  0.00000000D+00  0.22136654D-04 -0.33981905D-04 -0.13562737D-03
 -0.12442775D-05  0.00000000D+00  0.00000000D+00  0.36090413D-04  0.66579765D-04
  0.10748038D-03  0.13990753D-03  0.11938335D-03  0.41220200D-04 -0.21175643D-04
 -0.97598344D-05  0.27367595D-04  0.44501223D-04  0.34120715D-04  0.17028628D-04
 -0.10093163D-03 -0.77387969D-04 -0.38622020D-04  0.00000000D+00  0.00000000D+00
  0.00000000D+00 -0.10480756D-02  0.33371097D-03 -0.24190637D-03  0.00000000D+00
  0.45697704D-04  0.12852802D-03  0.11469688D-04 -0.93164113D-04  0.00000000D+00
  0.00000000D+00  0.40839806D-02  0.75341468D-02  0.12162449D-01  0.15831895D-01
  0.13509385D-01  0.46644659D-02  0.10248181D-03  0.47233771D-04 -0.13244842D-03
  0.16574461D-03  0.12708245D-03  0.63423050D-04  0.33245170D-04  0.25490288D-04
  0.12721440D-04  0.00000000D+00  0.00000000D+00  0.00000000D+00  0.18107599D-02
 -0.82265507D-03 -0.39020245D-03  0.00000000D+00 -0.29194342D-03 -0.49633104D-03
 -0.26431083D-03  0.24965256D-03  0.00000000D+00  0.00000000D+00  0.53406933D+00
  0.98525363D+00  0.15905048D+01  0.20703647D+01  0.17666460D+01  0.60998040D+00
 -0.10975459D-01 -0.50585791D-02  0.14184784D-01 -0.15036700D-04 -0.11529188D-04
 -0.57538727D-05  0.14189809D-02  0.10879845D-02  0.54298054D-03  0.00000000D+00
  0.00000000D+00  0.00000000D+00 -0.29838431D-02  0.73465497D-04  0.15051773D-02
  0.00000000D+00 -0.14711377D-02 -0.86980192D-03 -0.24660087D-02  0.14807756D-03
  0.00000000D+00  0.00000000D+00  0.45388713D-02  0.83733313D-02  0.13517153D-01
  0.17595317D-01  0.15014116D-01  0.51840134D-02  0.98603441D-04  0.45446236D-04
 -0.12743599D-03 -0.20987675D-03 -0.16092018D-03 -0.80310446D-04  0.25132606D-04
  0.19270088D-04  0.96171245D-05  0.00000000D+00  0.00000000D+00  0.00000000D+00
  0.19173528D-02  0.88461880D-03 -0.32194132D-03  0.00000000D+00 -0.33289704D-03
 -0.49315273D-03 -0.26266547D-03 -0.25130897D-03  0.00000000D+00  0.00000000D+00
  0.35398600D-04  0.65303504D-04  0.10542010D-03  0.13722565D-03  0.11709490D-03
  0.40430054D-04 -0.21807774D-04 -0.10051183D-04  0.28184567D-04 -0.38783582D-04
 -0.29736791D-04 -0.14840743D-04 -0.11094145D-03 -0.85062867D-04 -0.42452332D-04
  0.00000000D+00  0.00000000D+00  0.00000000D+00 -0.10356561D-02 -0.35571495D-03
 -0.22927666D-03  0.00000000D+00  0.44978590D-04  0.12473772D-03  0.10878493D-04
  0.86838125D-04  0.00000000D+00  0.00000000D+00  0.17423611D-04  0.29553742D-04
  0.33645891D-04  0.12759410D-03 -0.98211651D-05 -0.16658555D-04 -0.18965176D-04
 -0.68989574D-04  0.30886355D-04  0.52389105D-04  0.59643144D-04  0.27823726D-03
  0.26906801D-04  0.45639028D-04  0.51958420D-04  0.29227299D-03 -0.11658830D-04
 -0.19775583D-04 -0.22513802D-04 -0.76400314D-04  0.37493427D-04  0.69007921D-04
  0.11166784D-03  0.14679050D-03  0.12590136D-03  0.43047814D-04 -0.80356123D-03
 -0.35854746D-03  0.10587954D-02 -0.67500641D-06 -0.52005605D-06 -0.22833262D-06
 -0.64123347D-03 -0.49403582D-03 -0.21690833D-03  0.00000000D+00  0.00000000D+00
  0.00000000D+00 -0.16141248D-02  0.14087640D-04  0.81958355D-03  0.00000000D+00
  0.72889508D-03 -0.61257353D-03  0.98433433D-03  0.39474013D-04  0.00000000D+00
  0.00000000D+00  0.44379018D-04  0.75275214D-04  0.85698170D-04 -0.60613630D-04
MO    3     MO 0.0        OCC NO =    2.0000000  ORB. ENERGY =  -11.236836
  0.21803759D-01  0.40223678D-01  0.64933488D-01  0.84524107D-01  0.72124574D-01
  0.24902882D-01 -0.33220933D-03 -0.15311498D-03  0.42935037D-03  0.15509538D-03
  0.11891730D-03  0.59348067D-04 -0.16760736D-03 -0.12851069D-03 -0.64135842D-04
  0.00000000D+00  0.00000000D+00  0.00000000D+00  0.11337768D-02 -0.19821715D-03
  0.41404957D-03  0.00000000D+00 -0.59840027D-03 -0.40502963D-03 -0.26998920D-03
  0.98428355D-04  0.00000000D+00  0.00000000D+00  0.50550716D-02  0.93256200D-02
  0.15054442D-01  0.19596411D-01  0.16721653D-01  0.57735849D-02 -0.99546240D-04
 -0.45880771D-04  0.12865447D-03  0.23368602D-04  0.17917562D-04  0.89421191D-05
  0.12287523D-04  0.94212929D-05  0.47018855D-05  0.00000000D+00  0.00000000D+00
  0.00000000D+00 -0.49976093D-03  0.17156908D-03 -0.11879002D-03  0.00000000D+00
  0.12324962D-03  0.11657949D-04 -0.39872229D-05  0.33069213D-04  0.00000000D+00
  0.00000000D+00 -0.19805109D-03 -0.36536559D-03 -0.58981334D-03 -0.76776172D-03
 -0.65513247D-03 -0.22620150D-03  0.64726465D-04  0.29832369D-04 -0.83653075D-04
  0.45373190D-04  0.34789284D-04  0.17362291D-04  0.19274255D-04  0.14778276D-04
  0.73753955D-05  0.00000000D+00  0.00000000D+00  0.00000000D+00  0.36818596D-03
 -0.15612281D-03 -0.13706597D-03  0.00000000D+00 -0.53424296D-05 -0.27845071D-05
 -0.68645892D-04  0.14793528D-05  0.00000000D+00  0.00000000D+00 -0.33812420D-03
 -0.62377312D-03 -0.10069632D-02 -0.13107669D-02 -0.11184798D-02 -0.38618419D-03
  0.14527036D-04  0.66954978D-05 -0.18774875D-04 -0.98528148D-05 -0.75545134D-05
 -0.37702317D-05  0.11617764D-04  0.89077648D-05  0.44455989D-05  0.00000000D+00
  0.00000000D+00  0.00000000D+00 -0.46058139D-03  0.62387347D-04  0.16529918D-03
  0.00000000D+00  0.61667993D-04  0.66500609D-04  0.17527368D-04  0.10089666D-03
  0.00000000D+00  0.00000000D+00  0.36534253D-01  0.67398563D-01  0.10880218D+00
  0.14162811D+00  0.12085152D+00  0.41727126D-01 -0.65056004D-03 -0.29984253D-03
  0.84078974D-03 -0.40316715D-04 -0.30912300D-04 -0.15427404D-04  0.25931964D-03
  0.19882985D-03  0.99230030D-04  0.00000000D+00  0.00000000D+00  0.00000000D+00
  0.11123245D-02  0.26200182D-03 -0.32820982D-03  0.00000000D+00 -0.46295431D-03
 -0.70219873D-03 -0.35449077D-03 -0.96019624D-04  0.00000000D+00  0.00000000D+00
  0.53226813D+00  0.98193077D+00  0.15851407D+01  0.20633822D+01  0.17606878D+01
  0.60792319D+00 -0.11095375D-01 -0.51138484D-02  0.14339765D-01  0.19144889D-03
  0.14679086D-03  0.73258929D-04  0.23105671D-03  0.17715963D-03  0.88415072D-04
  0.00000000D+00  0.00000000D+00  0.00000000D+00 -0.28304616D-02 -0.40456420D-03
 -0.22660493D-03  0.00000000D+00 -0.19238021D-02 -0.17763713D-02 -0.26646844D-02
 -0.28540429D-03  0.00000000D+00  0.00000000D+00  0.79059845D-07  0.13410046D-06
  0.15266864D-06  0.94887808D-04 -0.74960512D-05 -0.12714722D-04 -0.14475261D-04
 -0.33024052D-04  0.98927733D-05  0.16780016D-04  0.19103455D-04  0.64753155D-04
 -0.48988001D-05 -0.83092921D-05 -0.94598354D-05  0.87654440D-04 -0.50593385D-04
 -0.85815956D-04 -0.97698433D-04  0.23750395D-03 -0.67651230D-05 -0.12451438D-04
 -0.20148777D-04 -0.26486131D-04 -0.22717001D-04 -0.77673283D-05  0.22904688D-04
  0.10220027D-04 -0.30179877D-04  0.21944021D-04  0.16906685D-04  0.74229454D-05
  0.41335898D-04  0.31847081D-04  0.13982584D-04  0.00000000D+00  0.00000000D+00
  0.00000000D+00  0.13598573D-04 -0.29229415D-04 -0.29800798D-04  0.00000000D+00
 -0.18567039D-04 -0.13335086D-04 -0.39677606D-04  0.60853940D-04  0.00000000D+00
  0.00000000D+00 -0.49089207D-05 -0.83264586D-05 -0.94793788D-05  0.85966311D-05
MO    4     MO 0.0        OCC NO =    2.0000000  ORB. ENERGY =  -11.234734
  0.23997351D-01  0.44270426D-01  0.71466195D-01  0.93027751D-01  0.79380749D-01
  0.27408265D-01 -0.38948585D-03 -0.17951367D-03  0.50337507D-03 -0.15714921D-03
 -0.12049205D-03 -0.60133976D-04 -0.16508527D-03 -0.12657692D-03 -0.63170753D-04
  0.00000000D+00  0.00000000D+00  0.00000000D+00  0.10975858D-02  0.19512622D-03
  0.40655973D-03  0.00000000D+00 -0.61965549D-03 -0.41412647D-03 -0.28102669D-03
 -0.13491375D-03  0.00000000D+00  0.00000000D+00  0.53280209D+00  0.98291582D+00
  0.15867309D+01  0.20654522D+01  0.17624541D+01  0.60853304D+00 -0.11109912D-01
 -0.51205485D-02  0.14358552D-01 -0.22774421D-03 -0.17461982D-03 -0.87147528D-04
  0.18184269D-03  0.13942544D-03  0.69583068D-04  0.00000000D+00  0.00000000D+00
  0.00000000D+00 -0.28462678D-02  0.41043212D-03 -0.22593695D-03  0.00000000D+00
 -0.19366073D-02 -0.17562471D-02 -0.26666532D-02  0.27646133D-03  0.00000000D+00
  0.00000000D+00  0.25679333D-01  0.47373355D-01  0.76475284D-01  0.99548096D-01
  0.84944571D-01  0.29329319D-01 -0.41248605D-03 -0.19011444D-03  0.53310074D-03
  0.38035239D-04  0.29163009D-04  0.14554385D-04  0.25751542D-03  0.19744649D-03
  0.98539636D-04  0.00000000D+00  0.00000000D+00  0.00000000D+00  0.11837941D-02
 -0.27046356D-03 -0.33659725D-03  0.00000000D+00 -0.42789686D-03 -0.63066041D-03
 -0.29742522D-03  0.10863885D-03  0.00000000D+00  0.00000000D+00 -0.20601054D-03
 -0.38004922D-03 -0.61351728D-03 -0.79861720D-03 -0.68146150D-03 -0.23529228D-03
  0.96563787D-05  0.44506161D-05 -0.12479992D-04  0.13813413D-04  0.10591249D-04
  0.52857756D-05  0.97930566D-05  0.75086947D-05  0.37473649D-05  0.00000000D+00
  0.00000000D+00  0.00000000D+00 -0.47305554D-03 -0.87706032D-04  0.16589318D-03
  0.00000000D+00  0.68820250D-04  0.73338245D-04  0.21692646D-04 -0.11388388D-03
  0.00000000D+00  0.00000000D+00 -0.14144764D-02 -0.26094328D-02 -0.42124336D-02
 -0.54833370D-02 -0.46789414D-02 -0.16155260D-02  0.86021433D-04  0.39647200D-04
 -0.11117489D-03 -0.43647446D-04 -0.33466093D-04 -0.16701926D-04  0.15391197D-04
  0.11800993D-04  0.58895228D-05  0.00000000D+00  0.00000000D+00  0.00000000D+00
  0.33587334D-03  0.14743373D-03 -0.13245334D-03  0.00000000D+00  0.41860548D-05
  0.11853576D-04 -0.57553443D-04 -0.28216767D-05  0.00000000D+00  0.00000000D+00
 -0.59383934D-02 -0.10955176D-01 -0.17685051D-01 -0.23020682D-01 -0.19643590D-01
 -0.67824595D-02  0.13084377D-03  0.60305772D-04 -0.16910368D-03 -0.30101020D-04
 -0.23079553D-04 -0.11518314D-04  0.81455594D-05  0.62454983D-05  0.31169414D-05
  0.00000000D+00  0.00000000D+00  0.00000000D+00 -0.43881435D-03 -0.15765999D-03
 -0.11783114D-03  0.00000000D+00  0.16193890D-03  0.49987548D-04  0.49335276D-04
 -0.27170965D-04  0.00000000D+00  0.00000000D+00 -0.77466726D-06 -0.13139823D-05
 -0.14959224D-05  0.93424472D-04 -0.50318372D-04 -0.85349482D-04 -0.97167368D-04
  0.23644532D-03 -0.35680077D-05 -0.60520163D-05 -0.68900067D-05  0.85682588D-04
  0.10493771D-04  0.17799422D-04  0.20264013D-04  0.60505707D-04 -0.60526711D-05
 -0.10266476D-04 -0.11688020D-04 -0.37201851D-04 -0.76089512D-05 -0.14004532D-04
 -0.22661976D-04 -0.29789802D-04 -0.25550540D-04 -0.87361637D-05  0.20689352D-04
  0.92315485D-05 -0.27260886D-04 -0.49051135D-04 -0.37791255D-04 -0.16592396D-04
  0.25143828D-04  0.19371964D-04  0.85053356D-05  0.00000000D+00  0.00000000D+00
  0.00000000D+00  0.22391910D-04  0.46316514D-04 -0.31238619D-04  0.00000000D+00
 -0.41980478D-04 -0.11450382D-04 -0.31648981D-04 -0.65638181D-04  0.00000000D+00
  0.00000000D+00  0.48342577D-05  0.81998161D-05  0.93352008D-05  0.15396274D-05
MO    5     MO 0.0        OCC NO =    2.0000000  ORB. ENERGY =  -11.227984
 -0.38468504D-02 -0.70966879D-02 -0.11456255D-01 -0.14912640D-01 -0.12724982D-01
 -0.43936306D-02  0.66527410D-04  0.30662422D-04 -0.85980633D-04 -0.11869222D-05
 -0.91005664D-06 -0.45418204D-06  0.38896246D-05  0.29823174D-05  0.14883854D-05
  0.00000000D+00  0.00000000D+00  0.00000000D+00 -0.58570921D-03  0.23726808D-04
 -0.26197581D-03  0.00000000D+00  0.14240857D-03  0.14541848D-03  0.61384765D-04
 -0.11868281D-03  0.00000000D+00  0.00000000D+00  0.11824409D-02  0.21813727D-02
  0.35214118D-02  0.45838319D-02  0.39113921D-02  0.13505097D-02  0.35141020D-04
  0.16196464D-04 -0.45416576D-04  0.26883625D-04  0.20612659D-04  0.10287161D-04
 -0.29639913D-04 -0.22726005D-04 -0.11341869D-04  0.00000000D+00  0.00000000D+00
  0.00000000D+00  0.46801952D-03 -0.19015448D-03  0.11507423D-03  0.00000000D+00
 -0.25991057D-04 -0.13299560D-04 -0.79529834D-04  0.18563048D-04  0.00000000D+00
  0.00000000D+00 -0.55862077D-03 -0.10305462D-02 -0.16636212D-02 -0.21655404D-02
 -0.18478596D-02 -0.63802151D-03  0.18185857D-04  0.83818450D-05 -0.23503568D-04
 -0.31986470D-05 -0.24525197D-05 -0.12239792D-05  0.12823538D-04  0.98322757D-05
  0.49069947D-05  0.00000000D+00  0.00000000D+00  0.00000000D+00 -0.47180149D-03
  0.17314691D-03  0.12777488D-03  0.00000000D+00  0.17935922D-03  0.56805217D-04
  0.28169526D-04 -0.58488852D-04  0.00000000D+00  0.00000000D+00 -0.48554576D-02
 -0.89573712D-02 -0.14459974D-01 -0.18822590D-01 -0.16061350D-01 -0.55455983D-02
  0.19631431D-03  0.90481088D-04 -0.25371841D-03  0.18749979D-03  0.14376295D-03
  0.71747787D-04  0.11793665D-03  0.90426343D-04  0.45129083D-04  0.00000000D+00
  0.00000000D+00  0.00000000D+00  0.12998524D-02 -0.24268459D-03 -0.38893828D-03
  0.00000000D+00 -0.58591878D-03 -0.41478515D-03 -0.14667511D-03 -0.13688922D-03
  0.00000000D+00  0.00000000D+00  0.53271487D+00  0.98275492D+00  0.15864712D+01
  0.20651141D+01  0.17621656D+01  0.60843342D+00 -0.11233333D-01 -0.51774330D-02
  0.14518063D-01  0.35532205D-03  0.27243841D-03  0.13596586D-03 -0.43108237D-04
 -0.33052662D-04 -0.16495595D-04  0.00000000D+00  0.00000000D+00  0.00000000D+00
 -0.30176850D-02 -0.45112725D-03  0.22375282D-03  0.00000000D+00 -0.19780447D-02
 -0.17955721D-02 -0.26651389D-02  0.30700477D-03  0.00000000D+00  0.00000000D+00
 -0.36732651D-01 -0.67764568D-01 -0.10939302D+00 -0.14239721D+00 -0.12150780D+00
 -0.41953724D-01  0.87842803D-03  0.40486668D-03 -0.11352884D-02 -0.82885729D-04
 -0.63551520D-04 -0.31716662D-04 -0.24586067D-03 -0.18851037D-03 -0.94079886D-04
  0.00000000D+00  0.00000000D+00  0.00000000D+00  0.14224384D-02  0.30299179D-03
  0.37952743D-03  0.00000000D+00 -0.19500454D-03 -0.41828847D-03  0.24360210D-04
  0.13551558D-03  0.00000000D+00  0.00000000D+00 -0.85304103D-05 -0.14469190D-04
 -0.16472662D-04 -0.54456536D-04  0.78975487D-05  0.13395737D-04  0.15250573D-04
  0.62138381D-04 -0.84447957D-05 -0.14323972D-04 -0.16307336D-04 -0.36844219D-04
 -0.48824409D-04 -0.82815439D-04 -0.94282450D-04  0.23777895D-03  0.61166112D-05
  0.10374930D-04  0.11811491D-04  0.62328932D-04  0.24827765D-05  0.45696341D-05
  0.73945305D-05  0.97203173D-05  0.83370597D-05  0.28505823D-05  0.50768689D-04
  0.22652890D-04 -0.66894288D-04  0.15493582D-04  0.11936970D-04  0.52409726D-05
  0.80854174D-05  0.62293782D-05  0.27350326D-05  0.00000000D+00  0.00000000D+00
  0.00000000D+00  0.57443093D-04  0.30035486D-04 -0.77087837D-05  0.00000000D+00
  0.31855322D-04  0.90145917D-04 -0.60853332D-04  0.75320809D-04  0.00000000D+00
  0.00000000D+00 -0.11394351D-05 -0.19326977D-05 -0.22003080D-05  0.67688200D-05
MO    6     MO 0.0        OCC NO =    2.0000000  ORB. ENERGY =  -11.221747
 -0.74879775D-01 -0.13813856D+00 -0.22299847D+00 -0.29027775D+00 -0.24769453D+00
 -0.85522970D-01  0.15641955D-02  0.72093630D-03 -0.20215806D-02 -0.36882485D-05
 -0.28279150D-05 -0.14113278D-05 -0.57584025D-04 -0.44151778D-04 -0.22034832D-04
  0.00000000D+00  0.00000000D+00  0.00000000D+00 -0.15062247D-03 -0.10293789D-04
 -0.17353811D-03  0.00000000D+00  0.35077672D-03  0.40774710D-03  0.40747092D-03
  0.11920190D-03  0.00000000D+00  0.00000000D+00 -0.22323297D-01 -0.41182124D-01
 -0.66480717D-01 -0.86538141D-01 -0.73843152D-01 -0.25496266D-01  0.56546144D-03
  0.26062066D-03 -0.73080754D-03  0.51967690D-04  0.39845529D-04  0.19885711D-04
 -0.26217356D-03 -0.20101806D-03 -0.10032210D-03  0.00000000D+00  0.00000000D+00
  0.00000000D+00  0.11742259D-02 -0.23095926D-03  0.36592660D-03  0.00000000D+00
 -0.18519053D-03 -0.41754990D-03 -0.23052717D-04 -0.74196058D-04  0.00000000D+00
  0.00000000D+00  0.52822786D+00  0.97447726D+00  0.15731084D+01  0.20477198D+01
  0.17473230D+01  0.60330864D+00 -0.11137032D-01 -0.51330478D-02  0.14393602D-01
 -0.47815968D-03 -0.36662251D-03 -0.18297033D-03 -0.13197571D-03 -0.10119060D-03
 -0.50501203D-04  0.00000000D+00  0.00000000D+00  0.00000000D+00 -0.28734029D-02
  0.42035870D-03  0.22148923D-03  0.00000000D+00 -0.19688676D-02 -0.17824362D-02
 -0.26675788D-02 -0.28257541D-03  0.00000000D+00  0.00000000D+00 -0.43748900D-02
 -0.80708178D-02 -0.13028802D-01 -0.16959630D-01 -0.14471683D-01 -0.49967242D-02
  0.16737433D-03  0.77142677D-04 -0.21631612D-03 -0.18449913D-03 -0.14146223D-03
 -0.70599569D-04  0.10740336D-03  0.82350086D-04  0.41098464D-04  0.00000000D+00
  0.00000000D+00  0.00000000D+00  0.12304608D-02  0.21027742D-03 -0.34072116D-03
  0.00000000D+00 -0.59896874D-03 -0.41489851D-03 -0.14123500D-03  0.12246196D-03
  0.00000000D+00  0.00000000D+00  0.28280527D-03  0.52172050D-03  0.84221865D-03
  0.10963184D-02  0.93549051D-03  0.32300239D-03  0.36592821D-05  0.16865598D-05
 -0.47292897D-05  0.45185781D-05  0.34645591D-05  0.17290578D-05  0.16231533D-04
  0.12445310D-04  0.62110821D-05  0.00000000D+00  0.00000000D+00  0.00000000D+00
 -0.39604185D-03 -0.15196986D-03  0.76801222D-04  0.00000000D+00  0.16545685D-03
  0.31774225D-04  0.13980441D-04  0.63157222D-04  0.00000000D+00  0.00000000D+00
  0.34688802D-02  0.63994066D-02  0.10330626D-01  0.13447406D-01  0.11474696D-01
  0.39619368D-02 -0.29023798D-04 -0.13377042D-04  0.37510622D-04  0.13952928D-05
  0.10698220D-05  0.53391615D-06 -0.40473466D-04 -0.31032487D-04 -0.15487386D-04
  0.00000000D+00  0.00000000D+00  0.00000000D+00  0.24953451D-03  0.12556387D-03
  0.95193378D-04  0.00000000D+00  0.30124668D-04  0.34710415D-04 -0.69387653D-04
 -0.54887751D-04  0.00000000D+00  0.00000000D+00 -0.82331758D-06 -0.13965024D-05
 -0.15898687D-05 -0.78609898D-04  0.51005003D-05  0.86514138D-05  0.98493288D-05
  0.57985788D-04 -0.45767735D-04 -0.77630741D-04 -0.88379854D-04  0.23107035D-03
 -0.48813383D-05 -0.82796737D-05 -0.94261159D-05 -0.30174740D-04  0.82766399D-05
  0.14038748D-04  0.15982618D-04  0.53514403D-04  0.16057496D-04  0.29554365D-04
  0.47824541D-04  0.62866698D-04  0.53920401D-04  0.18436301D-04  0.22607570D-04
  0.10087454D-04 -0.29788386D-04 -0.33311886D-04 -0.25665012D-04 -0.11268323D-04
 -0.26693324D-04 -0.20565767D-04 -0.90294796D-05  0.00000000D+00  0.00000000D+00
  0.00000000D+00 -0.32633315D-04 -0.13049921D-05 -0.36333722D-05  0.00000000D+00
  0.85567524D-04  0.15176116D-03 -0.40517639D-05 -0.87957843D-04  0.00000000D+00
  0.00000000D+00  0.11572245D-05  0.19628718D-05  0.22346602D-05  0.26467311D-04
MO    7     MO 0.0        OCC NO =    2.0000000  ORB. ENERGY =  -11.221504
  0.52772255D+00  0.97354506D+00  0.15716036D+01  0.20457609D+01  0.17456515D+01
  0.60273151D+00 -0.11091056D-01 -0.51118574D-02  0.14334182D-01 -0.86585479D-05
 -0.66388254D-05 -0.33132391D-05  0.38680330D-03  0.29657624D-03  0.14801233D-03
  0.00000000D+00  0.00000000D+00  0.00000000D+00 -0.31393227D-02  0.62148347D-05
 -0.59912464D-03  0.00000000D+00 -0.16421543D-02 -0.19622628D-02 -0.26069246D-02
  0.94111304D-05  0.00000000D+00  0.00000000D+00 -0.27910278D-01 -0.51489014D-01
 -0.83119233D-01 -0.10819654D+00 -0.92324307D-01 -0.31877365D-01  0.70846320D-03
  0.32653004D-03 -0.91562432D-03  0.25297592D-03  0.19396589D-03  0.96802574D-04
  0.21548335D-04  0.16521896D-04  0.82455842D-05  0.00000000D+00  0.00000000D+00
  0.00000000D+00  0.16595057D-02 -0.54238742D-03  0.12832428D-03  0.00000000D+00
 -0.40715288D-03 -0.42023837D-03 -0.44966891D-04 -0.29017179D-03  0.00000000D+00
  0.00000000D+00  0.73818137D-01  0.13618005D+00  0.21983682D+00  0.28616222D+00
  0.24418274D+00  0.84310434D-01 -0.15741798D-02 -0.72553801D-03  0.20344843D-02
 -0.67256245D-04 -0.51567823D-04 -0.25735958D-04 -0.29726757D-04 -0.22792592D-04
 -0.11375101D-04  0.00000000D+00  0.00000000D+00  0.00000000D+00 -0.10689602D-02