 b3pw91/6-31G** opt out=wfn                              
GAUSSIAN             25 MOL ORBITALS    238 PRIMITIVES       13 NUCLEI
  C    1    (CENTRE  1)   0.03845622 -3.50429352  0.00000000  CHARGE =  6.0
  C    2    (CENTRE  2)   2.30190708 -2.15014284  0.00000000  CHARGE =  6.0
  C    3    (CENTRE  3)   2.29771629  0.47719161  0.00000000  CHARGE =  6.0
  C    4    (CENTRE  4)   0.00000000  1.78014848  0.00000000  CHARGE =  6.0
  C    5    (CENTRE  5)  -2.27494062  0.43991552  0.00000000  CHARGE =  6.0
  C    6    (CENTRE  6)  -2.24332006 -2.19334575  0.00000000  CHARGE =  6.0
  H    7    (CENTRE  7)   0.05606633 -5.55561655  0.00000000  CHARGE =  1.0
  H    8    (CENTRE  8)   4.09533063 -3.15013439  0.00000000  CHARGE =  1.0
  H    9    (CENTRE  9)   4.04406403  1.55257697  0.00000000  CHARGE =  1.0
  H   10    (CENTRE 10)  -4.06514331  1.45345638  0.00000000  CHARGE =  1.0
  H   11    (CENTRE 11)  -4.02263424 -3.21807107  0.00000000  CHARGE =  1.0
  O   12    (CENTRE 12)   0.09699114  4.35167259  0.00000000  CHARGE =  8.0
  H   13    (CENTRE 13)  -1.60252609  5.00756687  0.00000000  CHARGE =  1.0
CENTRE ASSIGNMENTS    1  1  1  1  1  1  1  1  1  1  1  1  1  1  1  1  1  1  1  1
CENTRE ASSIGNMENTS    1  1  1  1  1  1  1  1  2  2  2  2  2  2  2  2  2  2  2  2
CENTRE ASSIGNMENTS    2  2  2  2  2  2  2  2  2  2  2  2  2  2  2  2  3  3  3  3
CENTRE ASSIGNMENTS    3  3  3  3  3  3  3  3  3  3  3  3  3  3  3  3  3  3  3  3
CENTRE ASSIGNMENTS    3  3  3  3  4  4  4  4  4  4  4  4  4  4  4  4  4  4  4  4
CENTRE ASSIGNMENTS    4  4  4  4  4  4  4  4  4  4  4  4  5  5  5  5  5  5  5  5
CENTRE ASSIGNMENTS    5  5  5  5  5  5  5  5  5  5  5  5  5  5  5  5  5  5  5  5
CENTRE ASSIGNMENTS    6  6  6  6  6  6  6  6  6  6  6  6  6  6  6  6  6  6  6  6
CENTRE ASSIGNMENTS    6  6  6  6  6  6  6  6  7  7  7  7  7  7  7  8  8  8  8  8
CENTRE ASSIGNMENTS    8  8  9  9  9  9  9  9  9 10 10 10 10 10 10 10 11 11 11 11
CENTRE ASSIGNMENTS   11 11 11 12 12 12 12 12 12 12 12 12 12 12 12 12 12 12 12 12
CENTRE ASSIGNMENTS   12 12 12 12 12 12 12 12 12 12 12 13 13 13 13 13 13 13
TYPE ASSIGNMENTS      1  1  1  1  1  1  1  1  1  2  2  2  3  3  3  4  4  4  1  2
TYPE ASSIGNMENTS      3  4  5  6  7  8  9 10  1  1  1  1  1  1  1  1  1  2  2  2
TYPE ASSIGNMENTS      3  3  3  4  4  4  1  2  3  4  5  6  7  8  9 10  1  1  1  1
TYPE ASSIGNMENTS      1  1  1  1  1  2  2  2  3  3  3  4  4  4  1  2  3  4  5  6
TYPE ASSIGNMENTS      7  8  9 10  1  1  1  1  1  1  1  1  1  2  2  2  3  3  3  4
TYPE ASSIGNMENTS      4  4  1  2  3  4  5  6  7  8  9 10  1  1  1  1  1  1  1  1
TYPE ASSIGNMENTS      1  2  2  2  3  3  3  4  4  4  1  2  3  4  5  6  7  8  9 10
TYPE ASSIGNMENTS      1  1  1  1  1  1  1  1  1  2  2  2  3  3  3  4  4  4  1  2
TYPE ASSIGNMENTS      3  4  5  6  7  8  9 10  1  1  1  1  2  3  4  1  1  1  1  2
TYPE ASSIGNMENTS      3  4  1  1  1  1  2  3  4  1  1  1  1  2  3  4  1  1  1  1
TYPE ASSIGNMENTS      2  3  4  1  1  1  1  1  1  1  1  1  2  2  2  3  3  3  4  4
TYPE ASSIGNMENTS      4  1  2  3  4  5  6  7  8  9 10  1  1  1  1  2  3  4
EXPONENTS  0.3047525D+04 0.4573695D+03 0.1039487D+03 0.2921016D+02 0.9286663D+01
EXPONENTS  0.3163927D+01 0.7868272D+01 0.1881289D+01 0.5442493D+00 0.7868272D+01
EXPONENTS  0.1881289D+01 0.5442493D+00 0.7868272D+01 0.1881289D+01 0.5442493D+00
EXPONENTS  0.7868272D+01 0.1881289D+01 0.5442493D+00 0.1687145D+00 0.1687145D+00
EXPONENTS  0.1687145D+00 0.1687145D+00 0.8000000D+00 0.8000000D+00 0.8000000D+00
EXPONENTS  0.8000000D+00 0.8000000D+00 0.8000000D+00 0.3047525D+04 0.4573695D+03
EXPONENTS  0.1039487D+03 0.2921016D+02 0.9286663D+01 0.3163927D+01 0.7868272D+01
EXPONENTS  0.1881289D+01 0.5442493D+00 0.7868272D+01 0.1881289D+01 0.5442493D+00
EXPONENTS  0.7868272D+01 0.1881289D+01 0.5442493D+00 0.7868272D+01 0.1881289D+01
EXPONENTS  0.5442493D+00 0.1687145D+00 0.1687145D+00 0.1687145D+00 0.1687145D+00
EXPONENTS  0.8000000D+00 0.8000000D+00 0.8000000D+00 0.8000000D+00 0.8000000D+00
EXPONENTS  0.8000000D+00 0.3047525D+04 0.4573695D+03 0.1039487D+03 0.2921016D+02
EXPONENTS  0.9286663D+01 0.3163927D+01 0.7868272D+01 0.1881289D+01 0.5442493D+00
EXPONENTS  0.7868272D+01 0.1881289D+01 0.5442493D+00 0.7868272D+01 0.1881289D+01
EXPONENTS  0.5442493D+00 0.7868272D+01 0.1881289D+01 0.5442493D+00 0.1687145D+00
EXPONENTS  0.1687145D+00 0.1687145D+00 0.1687145D+00 0.8000000D+00 0.8000000D+00
EXPONENTS  0.8000000D+00 0.8000000D+00 0.8000000D+00 0.8000000D+00 0.3047525D+04
EXPONENTS  0.4573695D+03 0.1039487D+03 0.2921016D+02 0.9286663D+01 0.3163927D+01
EXPONENTS  0.7868272D+01 0.1881289D+01 0.5442493D+00 0.7868272D+01 0.1881289D+01
EXPONENTS  0.5442493D+00 0.7868272D+01 0.1881289D+01 0.5442493D+00 0.7868272D+01
EXPONENTS  0.1881289D+01 0.5442493D+00 0.1687145D+00 0.1687145D+00 0.1687145D+00
EXPONENTS  0.1687145D+00 0.8000000D+00 0.8000000D+00 0.8000000D+00 0.8000000D+00
EXPONENTS  0.8000000D+00 0.8000000D+00 0.3047525D+04 0.4573695D+03 0.1039487D+03
EXPONENTS  0.2921016D+02 0.9286663D+01 0.3163927D+01 0.7868272D+01 0.1881289D+01
EXPONENTS  0.5442493D+00 0.7868272D+01 0.1881289D+01 0.5442493D+00 0.7868272D+01
EXPONENTS  0.1881289D+01 0.5442493D+00 0.7868272D+01 0.1881289D+01 0.5442493D+00
EXPONENTS  0.1687145D+00 0.1687145D+00 0.1687145D+00 0.1687145D+00 0.8000000D+00
EXPONENTS  0.8000000D+00 0.8000000D+00 0.8000000D+00 0.8000000D+00 0.8000000D+00
EXPONENTS  0.3047525D+04 0.4573695D+03 0.1039487D+03 0.2921016D+02 0.9286663D+01
EXPONENTS  0.3163927D+01 0.7868272D+01 0.1881289D+01 0.5442493D+00 0.7868272D+01
EXPONENTS  0.1881289D+01 0.5442493D+00 0.7868272D+01 0.1881289D+01 0.5442493D+00
EXPONENTS  0.7868272D+01 0.1881289D+01 0.5442493D+00 0.1687145D+00 0.1687145D+00
EXPONENTS  0.1687145D+00 0.1687145D+00 0.8000000D+00 0.8000000D+00 0.8000000D+00
EXPONENTS  0.8000000D+00 0.8000000D+00 0.8000000D+00 0.1873114D+02 0.2825394D+01
EXPONENTS  0.6401217D+00 0.1612778D+00 0.1100000D+01 0.1100000D+01 0.1100000D+01
EXPONENTS  0.1873114D+02 0.2825394D+01 0.6401217D+00 0.1612778D+00 0.1100000D+01
EXPONENTS  0.1100000D+01 0.1100000D+01 0.1873114D+02 0.2825394D+01 0.6401217D+00
EXPONENTS  0.1612778D+00 0.1100000D+01 0.1100000D+01 0.1100000D+01 0.1873114D+02
EXPONENTS  0.2825394D+01 0.6401217D+00 0.1612778D+00 0.1100000D+01 0.1100000D+01
EXPONENTS  0.1100000D+01 0.1873114D+02 0.2825394D+01 0.6401217D+00 0.1612778D+00
EXPONENTS  0.1100000D+01 0.1100000D+01 0.1100000D+01 0.5484672D+04 0.8252349D+03
EXPONENTS  0.1880470D+03 0.5296450D+02 0.1689757D+02 0.5799635D+01 0.1553962D+02
EXPONENTS  0.3599934D+01 0.1013762D+01 0.1553962D+02 0.3599934D+01 0.1013762D+01
EXPONENTS  0.1553962D+02 0.3599934D+01 0.1013762D+01 0.1553962D+02 0.3599934D+01
EXPONENTS  0.1013762D+01 0.2700058D+00 0.2700058D+00 0.2700058D+00 0.2700058D+00
EXPONENTS  0.8000000D+00 0.8000000D+00 0.8000000D+00 0.8000000D+00 0.8000000D+00
EXPONENTS  0.8000000D+00 0.1873114D+02 0.2825394D+01 0.6401217D+00 0.1612778D+00
EXPONENTS  0.1100000D+01 0.1100000D+01 0.1100000D+01
MO    1     MO 0.0        OCC NO =    2.0000000  ORB. ENERGY =  -19.169831
  0.74479554D-05  0.13740023D-04  0.22180658D-04  0.28872626D-04  0.24637064D-04
  0.85065863D-05 -0.28516657D-04 -0.13143301D-04  0.36855188D-04  0.31426211D-04
  0.24095626D-04  0.12025406D-04  0.31416483D-04  0.24088166D-04  0.12021683D-04
  0.00000000D+00  0.00000000D+00  0.00000000D+00 -0.14245860D-03 -0.35253780D-04
 -0.85645039D-04  0.00000000D+00 -0.23682513D-04  0.16487498D-04  0.39835722D-04
  0.56569061D-05  0.00000000D+00  0.00000000D+00  0.68550572D-05  0.12646242D-04
  0.20414956D-04  0.26574207D-04  0.22675819D-04  0.78294153D-05 -0.17589875D-04
 -0.81071575D-05  0.22733316D-04 -0.30451393D-04 -0.23348197D-04 -0.11652387D-04
  0.60069911D-04  0.46057798D-04  0.22986069D-04  0.00000000D+00  0.00000000D+00
  0.00000000D+00  0.13272449D-03 -0.49982250D-04 -0.21482641D-04  0.00000000D+00
  0.22252406D-04  0.28965811D-04  0.45571190D-04  0.33586089D-04  0.00000000D+00
  0.00000000D+00  0.30091668D-05  0.55513252D-05  0.89615601D-05  0.11665289D-04
  0.99540119D-05  0.34368811D-05 -0.47777134D-04 -0.22020437D-04  0.61747605D-04
 -0.18281941D-04 -0.14017433D-04 -0.69956814D-05  0.29187835D-04  0.22379380D-04
  0.11168879D-04  0.00000000D+00  0.00000000D+00  0.00000000D+00 -0.11927579D-03
  0.17184783D-03  0.87470979D-04  0.00000000D+00 -0.69275535D-04 -0.66893965D-04
  0.19221180D-04  0.25367553D-04  0.00000000D+00  0.00000000D+00 -0.22086366D-04
 -0.40745032D-04 -0.65775115D-04 -0.85619656D-04 -0.73059408D-04 -0.25225658D-04
 -0.76586554D-04 -0.35298673D-04  0.98981163D-04  0.98375801D-04  0.75428325D-04
  0.37644020D-04  0.53463239D-03  0.40992220D-03  0.20457991D-03  0.00000000D+00
  0.00000000D+00  0.00000000D+00 -0.63238233D-04 -0.98019035D-04 -0.60596782D-03
  0.00000000D+00 -0.22488075D-04 -0.76708661D-04 -0.91022088D-04  0.10194704D-03
  0.00000000D+00  0.00000000D+00  0.13321370D-04  0.24575326D-04  0.39672197D-04
  0.51641412D-04  0.44065711D-04  0.15214831D-04 -0.87619084D-04 -0.40383556D-04
  0.11323971D-03 -0.28467994D-04 -0.21827452D-04 -0.10893428D-04 -0.10388410D-03
 -0.79651737D-04 -0.39751799D-04  0.00000000D+00  0.00000000D+00  0.00000000D+00
 -0.51161578D-03 -0.20345051D-03  0.20691518D-03  0.00000000D+00 -0.60151689D-04
 -0.10284843D-03  0.59770047D-04 -0.65333898D-05  0.00000000D+00  0.00000000D+00
 -0.25925840D-05 -0.47828112D-05 -0.77209402D-05 -0.10050370D-04 -0.85759990D-05
 -0.29610864D-05  0.20668741D-04  0.95262041D-05 -0.26712471D-04  0.53573897D-05
  0.41077066D-05  0.20500335D-05  0.94850395D-04  0.72725267D-04  0.36295005D-04
  0.00000000D+00  0.00000000D+00  0.00000000D+00  0.31916951D-03  0.53345118D-04
  0.12219704D-03  0.00000000D+00  0.45765651D-05  0.61774043D-04  0.17853149D-05
 -0.22020325D-04  0.00000000D+00  0.00000000D+00 -0.49938166D-05 -0.84704582D-05
 -0.96433172D-05 -0.29313867D-04  0.70040490D-05 -0.67800384D-05  0.00000000D+00
  0.15831393D-06  0.26853039D-06  0.30571236D-06 -0.39509343D-05  0.20371988D-04
  0.14246017D-04  0.00000000D+00 -0.33919095D-05 -0.57533204D-05 -0.65499519D-05
 -0.10655164D-03 -0.17383165D-04  0.73050401D-04  0.00000000D+00 -0.18709644D-04
 -0.31735097D-04 -0.36129286D-04 -0.61070760D-04  0.45919026D-04 -0.11229902D-05
  0.00000000D+00  0.26107501D-06  0.44283264D-06  0.50414931D-06  0.13416785D-04
  0.18066815D-05 -0.37262084D-04  0.00000000D+00  0.82571576D+00  0.15197578D+01
  0.24592550D+01  0.32327595D+01  0.27727190D+01  0.94803973D+00 -0.15754613D-01
 -0.70296774D-02  0.20758732D-01 -0.31085424D-02 -0.23949643D-02 -0.10515183D-02
 -0.14366200D-02 -0.11068383D-02 -0.48596162D-03  0.00000000D+00  0.00000000D+00
  0.00000000D+00  0.36305649D-02  0.29127700D-04 -0.30577475D-03  0.00000000D+00
 -0.88499766D-02 -0.88881217D-02 -0.89577335D-02 -0.12493660D-03  0.00000000D+00
  0.00000000D+00  0.54400658D-04  0.92273812D-04  0.10505047D-03 -0.20077742D-03
 -0.27230737D-03  0.22666541D-03  0.00000000D+00
MO    2     MO 0.0        OCC NO =    2.0000000  ORB. ENERGY =  -10.236693
 -0.71809122D-04 -0.13247381D-03 -0.21385380D-03 -0.27837411D-03 -0.23753713D-03
 -0.82015863D-04  0.14995945D-03  0.69116175D-04 -0.19380897D-03 -0.51900751D-05
 -0.39794204D-05 -0.19860097D-05 -0.93960443D-04 -0.72042908D-04 -0.35954460D-04
  0.00000000D+00  0.00000000D+00  0.00000000D+00  0.10296498D-02 -0.22056893D-04
  0.54125740D-03  0.00000000D+00  0.29381052D-04 -0.34233892D-04 -0.16415903D-03
 -0.22028065D-05  0.00000000D+00  0.00000000D+00  0.30190331D-04  0.55695265D-04
  0.89909427D-04  0.11703536D-03  0.99866484D-04  0.34481497D-04 -0.58011942D-04
 -0.26737651D-04  0.74975164D-04  0.42377882D-04  0.32492672D-04  0.16216121D-04
 -0.14358885D-03 -0.11009482D-03 -0.54945032D-04  0.00000000D+00  0.00000000D+00
  0.00000000D+00 -0.13143092D-02  0.42827432D-03 -0.31972834D-03  0.00000000D+00
  0.70910571D-05  0.81777900D-04  0.16904328D-04 -0.50657836D-04  0.00000000D+00
  0.00000000D+00  0.20382660D-02  0.37602027D-02  0.60701331D-02  0.79015097D-02
  0.67423725D-02  0.23279792D-02  0.24489384D-03  0.11287135D-03 -0.31650304D-03
  0.39397962D-03  0.30207858D-03  0.15075838D-03 -0.10648740D-03 -0.81647786D-04
 -0.40747967D-04  0.00000000D+00  0.00000000D+00  0.00000000D+00  0.21910344D-02
 -0.99476678D-03 -0.48647324D-03  0.00000000D+00 -0.39310299D-03 -0.49151811D-03
 -0.36112965D-03  0.31447487D-03  0.00000000D+00  0.00000000D+00  0.53267693D+00
  0.98268492D+00  0.15863582D+01  0.20649670D+01  0.17620401D+01  0.60839009D+00
 -0.19111022D-01 -0.88082524D-02  0.24699259D-01 -0.21145655D-04 -0.16213147D-04
 -0.80914969D-05  0.11641277D-02  0.89257932D-03  0.44545963D-03  0.00000000D+00
  0.00000000D+00  0.00000000D+00 -0.36750107D-02  0.10188525D-03  0.17573130D-02
  0.00000000D+00 -0.91818445D-02 -0.83777603D-02 -0.96758843D-02  0.82061620D-04
  0.00000000D+00  0.00000000D+00  0.22724404D-02  0.41922088D-02  0.67675248D-02
  0.88093064D-02  0.75169972D-02  0.25954385D-02  0.24829625D-03  0.11443952D-03
 -0.32090035D-03 -0.41351998D-03 -0.31706089D-03 -0.15823561D-03 -0.11000190D-03
 -0.84342481D-04 -0.42092809D-04  0.00000000D+00  0.00000000D+00  0.00000000D+00
  0.23462876D-02  0.10857680D-02 -0.39264178D-03  0.00000000D+00 -0.42360217D-03
 -0.49023096D-03 -0.37279609D-03 -0.30367954D-03  0.00000000D+00  0.00000000D+00
  0.32318456D-04  0.59621240D-04  0.96247168D-04  0.12528521D-03  0.10690610D-03
  0.36912107D-04 -0.62320137D-04 -0.28723294D-04  0.80543116D-04 -0.29717343D-04
 -0.22785374D-04 -0.11371499D-04 -0.15586920D-03 -0.11951061D-03 -0.59644172D-04
  0.00000000D+00  0.00000000D+00  0.00000000D+00 -0.13095885D-02 -0.46761630D-03
 -0.30252843D-03  0.00000000D+00  0.80561621D-05  0.76984501D-04  0.20516430D-04
  0.38000579D-04  0.00000000D+00  0.00000000D+00  0.23453697D-04  0.39781910D-04
  0.45290298D-04  0.16324889D-03  0.58652179D-05 -0.27749134D-05  0.00000000D+00
 -0.11166635D-04 -0.18940727D-04 -0.21563348D-04 -0.94330497D-04 -0.17044642D-04
  0.74584942D-04  0.00000000D+00  0.44098016D-04  0.74798581D-04  0.85155541D-04
  0.34053308D-03 -0.92901608D-04 -0.57128282D-04  0.00000000D+00  0.40545703D-04
  0.68773186D-04  0.78295842D-04  0.35734452D-03  0.97227390D-04 -0.73274130D-04
  0.00000000D+00 -0.14266995D-04 -0.24199524D-04 -0.27550303D-04 -0.10723636D-03
  0.20037508D-04  0.67755752D-04  0.00000000D+00  0.11965949D-03  0.22023734D-03
  0.35638559D-03  0.46847883D-03  0.40181157D-03  0.13738620D-03 -0.69191150D-03
 -0.30872956D-03  0.91168253D-03  0.11131381D-03  0.85761290D-04  0.37653826D-04
  0.12166901D-03  0.93739411D-04  0.41156650D-04  0.00000000D+00  0.00000000D+00
  0.00000000D+00 -0.16785580D-02  0.18941615D-04  0.83616799D-03  0.00000000D+00
  0.72175213D-03 -0.55245875D-03  0.99620633D-03 -0.10325122D-03  0.00000000D+00
  0.00000000D+00  0.44890459D-04  0.76142715D-04  0.86685789D-04 -0.57224233D-04
 -0.52932072D-04 -0.28909804D-03  0.00000000D+00
MO    3     MO 0.0        OCC NO =    2.0000000  ORB. ENERGY =  -10.179915
  0.14760346D-01  0.27229957D-01  0.43957593D-01  0.57219725D-01  0.48825695D-01
  0.16858339D-01 -0.28399433D-03 -0.13089273D-03  0.36703688D-03  0.38455253D-03
  0.29485049D-03  0.14715106D-03 -0.27705160D-03 -0.21242559D-03 -0.10601526D-03
  0.00000000D+00  0.00000000D+00  0.00000000D+00  0.14846371D-02 -0.23948383D-03
  0.59480408D-03  0.00000000D+00 -0.79036176D-03 -0.61834587D-03 -0.50726770D-03
  0.19741955D-03  0.00000000D+00  0.00000000D+00  0.18681593D-02  0.34463891D-02
  0.55635406D-02  0.72420768D-02  0.61796773D-02  0.21336941D-02 -0.83718540D-04
 -0.38585799D-04  0.10819861D-03  0.68476910D-04  0.52503752D-04  0.26203052D-04
  0.33451005D-04  0.25648109D-04  0.12800204D-04  0.00000000D+00  0.00000000D+00
  0.00000000D+00 -0.68763012D-03  0.25338435D-03 -0.16383141D-03  0.00000000D+00
  0.69597417D-04 -0.16123227D-04 -0.17819679D-04  0.26350169D-04  0.00000000D+00
  0.00000000D+00 -0.17792193D-03 -0.32823122D-03 -0.52986697D-03 -0.68972935D-03
 -0.58854731D-03 -0.20321124D-03  0.91592755D-04  0.42215017D-04 -0.11837531D-03
  0.57785567D-04  0.44306308D-04  0.22111953D-04  0.26527209D-04  0.20339381D-04
  0.10150777D-04  0.00000000D+00  0.00000000D+00  0.00000000D+00  0.52960913D-03
 -0.22697766D-03 -0.18078510D-03  0.00000000D+00 -0.27503934D-05  0.98805526D-05
 -0.90811144D-04 -0.18153132D-04  0.00000000D+00  0.00000000D+00 -0.26337028D-03
 -0.48586675D-03 -0.78433958D-03 -0.10209771D-02 -0.87120159D-03 -0.30080497D-03
  0.40960706D-05  0.18878752D-05 -0.52937991D-05  0.54888358D-04  0.42084911D-04
  0.21003320D-04  0.47847801D-04  0.36686659D-04  0.18309214D-04  0.00000000D+00
  0.00000000D+00  0.00000000D+00 -0.61081475D-03  0.48712096D-04  0.22929313D-03
  0.00000000D+00  0.15274306D-04  0.69466690D-05  0.10010097D-04  0.45939905D-04
  0.00000000D+00  0.00000000D+00  0.55616337D-01  0.10260128D+00  0.16563028D+00
  0.21560141D+00  0.18397308D+00  0.63521483D-01 -0.17624539D-02 -0.81231339D-03
  0.22778115D-02 -0.19359218D-04 -0.14843421D-04 -0.74079071D-05  0.51129803D-03
  0.39203090D-03  0.19565089D-03  0.00000000D+00  0.00000000D+00  0.00000000D+00
  0.13122595D-02  0.37588513D-03 -0.44223055D-03  0.00000000D+00 -0.12937792D-02
 -0.15883712D-02 -0.12751337D-02 -0.31246500D-04  0.00000000D+00  0.00000000D+00
  0.52946487D+00  0.97675931D+00  0.15767924D+01  0.20525152D+01  0.17514149D+01
  0.60472148D+00 -0.19089182D-01 -0.87981864D-02  0.24671033D-01  0.13227762D-03
  0.10142209D-03  0.50616732D-04  0.15337807D-03  0.11760057D-03  0.58690928D-04
  0.00000000D+00  0.00000000D+00  0.00000000D+00 -0.34328921D-02 -0.61842712D-03
 -0.33859186D-03  0.00000000D+00 -0.92759650D-02 -0.93054995D-02 -0.97908734D-02
  0.20426580D-04  0.00000000D+00  0.00000000D+00  0.11756162D-04  0.19940675D-04
  0.22701754D-04  0.15796634D-03  0.11972459D-04  0.12038850D-03  0.00000000D+00
 -0.10601601D-04 -0.17982322D-04 -0.20472238D-04 -0.55268237D-04 -0.29990639D-04
 -0.21116748D-04  0.00000000D+00  0.13511215D-04  0.22917578D-04  0.26090853D-04
  0.89861219D-04 -0.59727047D-05  0.12315940D-04  0.00000000D+00 -0.11156121D-05
 -0.18922892D-05 -0.21543044D-05  0.15646826D-03  0.68504681D-04 -0.30823301D-04
  0.00000000D+00 -0.13332271D-03 -0.22614055D-03 -0.25745303D-03  0.15270768D-03
 -0.39514801D-03 -0.23172182D-03  0.00000000D+00 -0.97350691D-05 -0.17917724D-04
 -0.28994260D-04 -0.38113766D-04 -0.32689956D-04 -0.11177251D-04  0.35363744D-04
  0.15779234D-04 -0.46596289D-04  0.42948329D-04  0.33089372D-04  0.14528017D-04
  0.64997827D-04  0.50077322D-04  0.21986642D-04  0.00000000D+00  0.00000000D+00
  0.00000000D+00  0.13669395D-04 -0.25105633D-04 -0.47144491D-04  0.00000000D+00
 -0.46815480D-04  0.59109352D-05 -0.64623389D-04  0.62295124D-04  0.00000000D+00
  0.00000000D+00 -0.44285347D-05 -0.75116330D-05 -0.85517286D-05  0.14946532D-04
  0.14235226D-04 -0.24885351D-04  0.00000000D+00
MO    4     MO 0.0        OCC NO =    2.0000000  ORB. ENERGY =  -10.177900
  0.18041773D-01  0.33283548D-01  0.53729966D-01  0.69940451D-01  0.59680314D-01
  0.20606178D-01 -0.40448263D-03 -0.18642567D-03  0.52275705D-03 -0.38124998D-03
 -0.29231830D-03 -0.14588732D-03 -0.28002204D-03 -0.21470314D-03 -0.10715192D-03
  0.00000000D+00  0.00000000D+00  0.00000000D+00  0.15092750D-02  0.23395417D-03
  0.61765576D-03  0.00000000D+00 -0.86014128D-03 -0.68291728D-03 -0.57065462D-03
 -0.22067303D-03  0.00000000D+00  0.00000000D+00  0.53182728D+00  0.98111748D+00
  0.15838278D+01  0.20616732D+01  0.17592295D+01  0.60741967D+00 -0.19192163D-01
 -0.88456502D-02  0.24804126D-01 -0.16148038D-03 -0.12381292D-03 -0.61791322D-04
  0.14875610D-03  0.11405675D-03  0.56922309D-04  0.00000000D+00  0.00000000D+00
  0.00000000D+00 -0.35526455D-02  0.65630760D-03 -0.36248877D-03  0.00000000D+00
 -0.93058563D-02 -0.93104200D-02 -0.98185598D-02 -0.18990056D-04  0.00000000D+00
  0.00000000D+00  0.21887106D-01  0.40377437D-01  0.65181703D-01  0.84847210D-01
  0.72400278D-01  0.24998076D-01 -0.53322093D-03 -0.24576104D-03  0.68913961D-03
  0.22787824D-04  0.17472258D-04  0.87198815D-05  0.51473698D-03  0.39466767D-03
  0.19696683D-03  0.00000000D+00  0.00000000D+00  0.00000000D+00  0.15735285D-02
 -0.42397925D-03 -0.47243577D-03  0.00000000D+00 -0.70763388D-03 -0.98254592D-03
 -0.65068417D-03  0.32214023D-04  0.00000000D+00  0.00000000D+00 -0.73487487D-04
 -0.13557006D-03 -0.21885212D-03 -0.28488043D-03 -0.24308899D-03 -0.83932785D-04
 -0.18751912D-04 -0.86427389D-05  0.24235142D-04 -0.29443995D-04 -0.22575788D-04
 -0.11266900D-04  0.28589300D-04  0.21920462D-04  0.10939847D-04  0.00000000D+00
  0.00000000D+00  0.00000000D+00 -0.72390537D-03 -0.96802892D-04  0.26005581D-03
  0.00000000D+00  0.49479397D-04  0.27410503D-04  0.22913073D-04 -0.70095615D-04
  0.00000000D+00  0.00000000D+00 -0.39201084D-02 -0.72318345D-02 -0.11674423D-01
 -0.15196630D-01 -0.12967312D-01 -0.44773012D-02  0.22490076D-03  0.10365656D-03
 -0.29066381D-03 -0.58221177D-04 -0.44640306D-04 -0.22278641D-04  0.21703519D-04
  0.16640882D-04  0.83049663D-05  0.00000000D+00  0.00000000D+00  0.00000000D+00
  0.56034710D-03  0.23681809D-03 -0.19166697D-03  0.00000000D+00  0.59639211D-04
  0.77711202D-04 -0.19146641D-04  0.12608616D-04  0.00000000D+00  0.00000000D+00
 -0.19489634D-02 -0.35954569D-02 -0.58041823D-02 -0.75553208D-02 -0.64469689D-02
 -0.22259834D-02  0.49118526D-04  0.22638684D-04 -0.63481232D-04 -0.72923369D-04
 -0.55913014D-04 -0.27904512D-04  0.40266473D-04  0.30873777D-04  0.15408179D-04
  0.00000000D+00  0.00000000D+00  0.00000000D+00 -0.70466277D-03 -0.25997607D-03
 -0.18051145D-03  0.00000000D+00  0.13658981D-03  0.54707538D-04  0.58069141D-04
 -0.23443408D-04  0.00000000D+00  0.00000000D+00  0.11491585D-04  0.19491903D-04
  0.22190843D-04  0.16373748D-03 -0.19428369D-04  0.11301753D-03  0.00000000D+00
 -0.13477076D-03 -0.22859671D-03 -0.26024928D-03  0.14281705D-03  0.40653233D-03
 -0.22761023D-03  0.00000000D+00  0.79035325D-05  0.13405887D-04  0.15262129D-04
  0.15355812D-03 -0.97610370D-04 -0.49037993D-04  0.00000000D+00  0.15437827D-04
  0.26185477D-04  0.29811240D-04  0.88410683D-04  0.73338245D-05  0.14693332D-04
  0.00000000D+00 -0.10125352D-04 -0.17174514D-04 -0.19552577D-04 -0.62264467D-04
  0.32418263D-04 -0.17814302D-04  0.00000000D+00 -0.12978345D-04 -0.23887084D-04
 -0.38653810D-04 -0.50811516D-04 -0.43580742D-04 -0.14900996D-04  0.38600646D-04
  0.17223533D-04 -0.50861324D-04 -0.50073406D-04 -0.38578860D-04 -0.16938198D-04
  0.50190419D-04  0.38669012D-04  0.16977779D-04  0.00000000D+00  0.00000000D+00
  0.00000000D+00  0.33465279D-04  0.56830944D-04 -0.53871684D-04  0.00000000D+00
 -0.83844848D-04 -0.85705258D-05 -0.64998826D-04 -0.47875737D-04  0.00000000D+00
  0.00000000D+00  0.83503057D-05  0.14163699D-04  0.16124871D-04  0.28476694D-05
  0.39516890D-04  0.10638457D-04  0.00000000D+00
MO    5     MO 0.0        OCC NO =    2.0000000  ORB. ENERGY =  -10.177255
 -0.19853157D-02 -0.36625198D-02 -0.59124426D-02 -0.76962435D-02 -0.65672185D-02
 -0.22675027D-02  0.81802379D-05  0.37702642D-05 -0.10572214D-04  0.10406595D-04
  0.79791167D-05  0.39821384D-05 -0.18182804D-06 -0.13941421D-06 -0.69577459D-07
  0.00000000D+00  0.00000000D+00  0.00000000D+00 -0.93876205D-03  0.60683222D-04
 -0.43110191D-03  0.00000000D+00  0.15479420D-03  0.14642437D-03  0.98430608D-04
 -0.10702084D-03  0.00000000D+00  0.00000000D+00  0.37187159D-02  0.68603047D-02
  0.11074659D-01  0.14415915D-01  0.12301127D-01  0.42472834D-02 -0.41270424D-04
 -0.19021501D-04  0.53338273D-04  0.21426193D-04  0.16428245D-04  0.81988458D-05
 -0.39310872D-04 -0.30141083D-04 -0.15042513D-04  0.00000000D+00  0.00000000D+00
  0.00000000D+00  0.74871638D-03 -0.29215677D-03  0.20218612D-03  0.00000000D+00
 -0.86306286D-04 -0.67407265D-04 -0.16988413D-03  0.26479197D-04  0.00000000D+00
  0.00000000D+00  0.10535394D-03  0.19435744D-03  0.31375317D-03  0.40841340D-03
  0.34849990D-03  0.12032864D-03 -0.25148547D-04 -0.11590942D-04  0.32502212D-04
  0.26163463D-04  0.20060484D-04  0.10011587D-04 -0.42762542D-05 -0.32787605D-05
 -0.16363313D-05  0.00000000D+00  0.00000000D+00  0.00000000D+00 -0.68946510D-03
  0.26982508D-03  0.25536810D-03  0.00000000D+00  0.11881926D-03  0.40251019D-04
  0.24083927D-04 -0.78650603D-04  0.00000000D+00  0.00000000D+00 -0.25361273D-02
 -0.46786597D-02 -0.75528074D-02 -0.98315111D-02 -0.83892462D-02 -0.28966051D-02
  0.34202274D-03  0.15763797D-03 -0.44203332D-03  0.44629649D-03  0.34219184D-03
  0.17077771D-03  0.25748337D-03  0.19742191D-03  0.98527371D-04  0.00000000D+00
  0.00000000D+00  0.00000000D+00  0.17703340D-02 -0.39902624D-03 -0.64403545D-03
  0.00000000D+00 -0.56637950D-03 -0.35262879D-03 -0.20140300D-03 -0.23543212D-03
  0.00000000D+00  0.00000000D+00  0.52967503D+00  0.97714700D+00  0.15774182D+01
  0.20533298D+01  0.17521101D+01  0.60496151D+00 -0.19233555D-01 -0.88647280D-02
  0.24857623D-01  0.24708884D-03  0.18945205D-03  0.94549850D-04 -0.39767300D-04
 -0.30491044D-04 -0.15217168D-04  0.00000000D+00  0.00000000D+00  0.00000000D+00
 -0.39152730D-02 -0.78021288D-03  0.35626868D-03  0.00000000D+00 -0.92434680D-02
 -0.92438044D-02 -0.97849021D-02 -0.18421877D-04  0.00000000D+00  0.00000000D+00
 -0.55854252D-01 -0.10304019D+00 -0.16633881D+00 -0.21652371D+00 -0.18476008D+00
 -0.63793214D-01  0.22679909D-02  0.10453149D-02 -0.29311722D-02 -0.66641679D-04
 -0.51096613D-04 -0.25500791D-04 -0.48251434D-03 -0.36996139D-03 -0.18463666D-03
  0.00000000D+00  0.00000000D+00  0.00000000D+00  0.20286971D-02  0.53917888D-03
  0.53444785D-03  0.00000000D+00  0.65337092D-03  0.39771533D-03  0.79404450D-03
  0.38211598D-04  0.00000000D+00  0.00000000D+00 -0.15072846D-04 -0.25566399D-04
 -0.29106442D-04 -0.97052549D-04 -0.48906642D-04  0.36157631D-05  0.00000000D+00
  0.10826315D-04  0.18363479D-04  0.20906171D-04  0.98338461D-04  0.85811036D-05
 -0.61178283D-05  0.00000000D+00 -0.17164678D-04 -0.29114543D-04 -0.33145878D-04
 -0.78819327D-04 -0.31335093D-04  0.70709304D-05  0.00000000D+00 -0.13339858D-03
 -0.22626924D-03 -0.25759953D-03  0.12183938D-03 -0.42502349D-03  0.26925629D-03
  0.00000000D+00  0.32909974D-04  0.55821545D-04  0.63550856D-04  0.14676607D-03
  0.16044882D-03  0.92023562D-04  0.00000000D+00 -0.14274739D-04 -0.26273139D-04
 -0.42514899D-04 -0.55887024D-04 -0.47933976D-04 -0.16389441D-04  0.80503804D-04
  0.35920640D-04 -0.10607413D-03 -0.64734143D-04 -0.49874167D-04 -0.21897446D-04
 -0.43759969D-05 -0.33714697D-05 -0.14802568D-05  0.00000000D+00  0.00000000D+00
  0.00000000D+00  0.19493468D-03  0.87358978D-04 -0.43919771D-04  0.00000000D+00
 -0.41216858D-04  0.30049553D-04 -0.86415109D-04  0.72447348D-05  0.00000000D+00
  0.00000000D+00  0.82438339D-05  0.13983103D-04  0.15919268D-04  0.22829719D-04
  0.24300411D-04 -0.26206473D-04  0.00000000D+00
MO    6     MO 0.0        OCC NO =    2.0000000  ORB. ENERGY =  -10.171028
 -0.55411944D-02 -0.10222422D-01 -0.16502158D-01 -0.21480907D-01 -0.18329696D-01
 -0.63288037D-02  0.15312595D-03  0.70575612D-04 -0.19790138D-03 -0.38752283D-04
 -0.29712792D-04 -0.14828766D-04 -0.23437501D-04 -0.17970389D-04 -0.89684835D-05
  0.00000000D+00  0.00000000D+00  0.00000000D+00 -0.81890783D-03 -0.21421679D-04
 -0.38760281D-03  0.00000000D+00  0.18419722D-03  0.18800825D-03  0.14761590D-03
  0.93374566D-04  0.00000000D+00  0.00000000D+00 -0.21971690D-01 -0.40533478D-01
 -0.65433602D-01 -0.85175107D-01 -0.72680073D-01 -0.25094683D-01  0.10469426D-02
  0.48253491D-03 -0.13530782D-02  0.60622838D-04  0.46481747D-04  0.23197649D-04
 -0.49297451D-03 -0.37798159D-03 -0.18863930D-03  0.00000000D+00  0.00000000D+00
  0.00000000D+00  0.18170075D-02 -0.49063388D-03  0.52355127D-03  0.00000000D+00
  0.60652376D-04 -0.21329768D-03  0.16582793D-03 -0.16972570D-04  0.00000000D+00
  0.00000000D+00  0.53212869D+00  0.98167353D+00  0.15847255D+01  0.20628417D+01
  0.17602265D+01  0.60776393D+00 -0.19316730D-01 -0.89030633D-02  0.24965119D-01
 -0.36873104D-03 -0.28271957D-03 -0.14109688D-03 -0.10441844D-03 -0.80061433D-04
 -0.39956266D-04  0.00000000D+00  0.00000000D+00  0.00000000D+00 -0.37943861D-02
  0.73385247D-03  0.37688126D-03  0.00000000D+00 -0.93467641D-02 -0.93102969D-02
 -0.98560210D-02  0.11425968D-04  0.00000000D+00  0.00000000D+00 -0.23093528D-02
 -0.42603050D-02 -0.68774532D-02 -0.89524005D-02 -0.76390996D-02 -0.26375975D-02
  0.32683661D-03  0.15063869D-03 -0.42240662D-03 -0.45544039D-03 -0.34920280D-03
 -0.17427667D-03  0.25682000D-03  0.19691328D-03  0.98273530D-04  0.00000000D+00
  0.00000000D+00  0.00000000D+00  0.17380764D-02  0.34228615D-03 -0.59886198D-03
  0.00000000D+00 -0.57930385D-03 -0.34544761D-03 -0.20455128D-03  0.18818407D-03
  0.00000000D+00  0.00000000D+00  0.84386241D-04  0.15567614D-03  0.25130956D-03
  0.32713037D-03  0.27914094D-03  0.96380658D-04 -0.19873176D-04 -0.91595288D-05
  0.25684275D-04 -0.28298079D-04 -0.21697172D-04 -0.10828409D-04 -0.25740666D-05
 -0.19736310D-05 -0.98498019D-06  0.00000000D+00  0.00000000D+00  0.00000000D+00
 -0.67616893D-03 -0.27497495D-03  0.20215370D-03  0.00000000D+00  0.12644808D-03
  0.42884381D-04  0.15994257D-04  0.68198328D-04  0.00000000D+00  0.00000000D+00
  0.35928391D-03  0.66280866D-03  0.10699787D-02  0.13927943D-02  0.11884739D-02
  0.41035149D-03  0.76214562D-04  0.35127222D-04 -0.98500397D-04 -0.27311374D-04
 -0.20940629D-04 -0.10450842D-04 -0.43079547D-04 -0.33030664D-04 -0.16484617D-04
  0.00000000D+00  0.00000000D+00  0.00000000D+00  0.69347787D-03  0.28471983D-03
  0.17973118D-03  0.00000000D+00 -0.18132145D-04 -0.72856017D-05 -0.10601734D-03
 -0.31304752D-04  0.00000000D+00  0.00000000D+00 -0.12977325D-04 -0.22011999D-04
 -0.25059883D-04 -0.87544360D-04  0.43256138D-04  0.16088856D-04  0.00000000D+00
  0.23753227D-04  0.40289968D-04  0.45868705D-04  0.15394846D-03 -0.14241456D-03