 hf/6-31G* opt=tight                                     
GAUSSIAN             51 MOL ORBITALS    220 PRIMITIVES       13 NUCLEI
  C    1    (CENTRE  1)   0.03513368 -3.48511404  0.00000000  CHARGE =  6.0
  C    2    (CENTRE  2)   2.28673294 -2.13690221  0.00000000  CHARGE =  6.0
  C    3    (CENTRE  3)   2.28390030  0.47369586  0.00000000  CHARGE =  6.0
  C    4    (CENTRE  4)   0.00000000  1.76569978  0.00000000  CHARGE =  6.0
  C    5    (CENTRE  5)  -2.25885015  0.44196179  0.00000000  CHARGE =  6.0
  C    6    (CENTRE  6)  -2.22815538 -2.17921686  0.00000000  CHARGE =  6.0
  H    7    (CENTRE  7)   0.05205235 -5.51589500  0.00000000  CHARGE =  1.0
  H    8    (CENTRE  8)   4.06090230 -3.12862107  0.00000000  CHARGE =  1.0
  H    9    (CENTRE  9)   4.01377830  1.53568034  0.00000000  CHARGE =  1.0
  H   10    (CENTRE 10)  -4.03008098  1.44561238  0.00000000  CHARGE =  1.0
  H   11    (CENTRE 11)  -3.99005101 -3.19245207  0.00000000  CHARGE =  1.0
  O   12    (CENTRE 12)   0.09237176  4.32043754  0.00000000  CHARGE =  8.0
  H   13    (CENTRE 13)  -1.55814338  5.01142917  0.00000000  CHARGE =  1.0
CENTRE ASSIGNMENTS    1  1  1  1  1  1  1  1  1  1  1  1  1  1  1  1  1  1  1  1
CENTRE ASSIGNMENTS    1  1  1  1  1  1  1  1  2  2  2  2  2  2  2  2  2  2  2  2
CENTRE ASSIGNMENTS    2  2  2  2  2  2  2  2  2  2  2  2  2  2  2  2  3  3  3  3
CENTRE ASSIGNMENTS    3  3  3  3  3  3  3  3  3  3  3  3  3  3  3  3  3  3  3  3
CENTRE ASSIGNMENTS    3  3  3  3  4  4  4  4  4  4  4  4  4  4  4  4  4  4  4  4
CENTRE ASSIGNMENTS    4  4  4  4  4  4  4  4  4  4  4  4  5  5  5  5  5  5  5  5
CENTRE ASSIGNMENTS    5  5  5  5  5  5  5  5  5  5  5  5  5  5  5  5  5  5  5  5
CENTRE ASSIGNMENTS    6  6  6  6  6  6  6  6  6  6  6  6  6  6  6  6  6  6  6  6
CENTRE ASSIGNMENTS    6  6  6  6  6  6  6  6  7  7  7  7  8  8  8  8  9  9  9  9
CENTRE ASSIGNMENTS   10 10 10 10 11 11 11 11 12 12 12 12 12 12 12 12 12 12 12 12
CENTRE ASSIGNMENTS   12 12 12 12 12 12 12 12 12 12 12 12 12 12 12 12 13 13 13 13
TYPE ASSIGNMENTS      1  1  1  1  1  1  1  1  1  2  2  2  3  3  3  4  4  4  1  2
TYPE ASSIGNMENTS      3  4  5  6  7  8  9 10  1  1  1  1  1  1  1  1  1  2  2  2
TYPE ASSIGNMENTS      3  3  3  4  4  4  1  2  3  4  5  6  7  8  9 10  1  1  1  1
TYPE ASSIGNMENTS      1  1  1  1  1  2  2  2  3  3  3  4  4  4  1  2  3  4  5  6
TYPE ASSIGNMENTS      7  8  9 10  1  1  1  1  1  1  1  1  1  2  2  2  3  3  3  4
TYPE ASSIGNMENTS      4  4  1  2  3  4  5  6  7  8  9 10  1  1  1  1  1  1  1  1
TYPE ASSIGNMENTS      1  2  2  2  3  3  3  4  4  4  1  2  3  4  5  6  7  8  9 10
TYPE ASSIGNMENTS      1  1  1  1  1  1  1  1  1  2  2  2  3  3  3  4  4  4  1  2
TYPE ASSIGNMENTS      3  4  5  6  7  8  9 10  1  1  1  1  1  1  1  1  1  1  1  1
TYPE ASSIGNMENTS      1  1  1  1  1  1  1  1  1  1  1  1  1  1  1  1  1  2  2  2
TYPE ASSIGNMENTS      3  3  3  4  4  4  1  2  3  4  5  6  7  8  9 10  1  1  1  1
EXPONENTS  0.3047525D+04 0.4573695D+03 0.1039487D+03 0.2921016D+02 0.9286663D+01
EXPONENTS  0.3163927D+01 0.7868272D+01 0.1881289D+01 0.5442493D+00 0.7868272D+01
EXPONENTS  0.1881289D+01 0.5442493D+00 0.7868272D+01 0.1881289D+01 0.5442493D+00
EXPONENTS  0.7868272D+01 0.1881289D+01 0.5442493D+00 0.1687145D+00 0.1687145D+00
EXPONENTS  0.1687145D+00 0.1687145D+00 0.8000000D+00 0.8000000D+00 0.8000000D+00
EXPONENTS  0.8000000D+00 0.8000000D+00 0.8000000D+00 0.3047525D+04 0.4573695D+03
EXPONENTS  0.1039487D+03 0.2921016D+02 0.9286663D+01 0.3163927D+01 0.7868272D+01
EXPONENTS  0.1881289D+01 0.5442493D+00 0.7868272D+01 0.1881289D+01 0.5442493D+00
EXPONENTS  0.7868272D+01 0.1881289D+01 0.5442493D+00 0.7868272D+01 0.1881289D+01
EXPONENTS  0.5442493D+00 0.1687145D+00 0.1687145D+00 0.1687145D+00 0.1687145D+00
EXPONENTS  0.8000000D+00 0.8000000D+00 0.8000000D+00 0.8000000D+00 0.8000000D+00
EXPONENTS  0.8000000D+00 0.3047525D+04 0.4573695D+03 0.1039487D+03 0.2921016D+02
EXPONENTS  0.9286663D+01 0.3163927D+01 0.7868272D+01 0.1881289D+01 0.5442493D+00
EXPONENTS  0.7868272D+01 0.1881289D+01 0.5442493D+00 0.7868272D+01 0.1881289D+01
EXPONENTS  0.5442493D+00 0.7868272D+01 0.1881289D+01 0.5442493D+00 0.1687145D+00
EXPONENTS  0.1687145D+00 0.1687145D+00 0.1687145D+00 0.8000000D+00 0.8000000D+00
EXPONENTS  0.8000000D+00 0.8000000D+00 0.8000000D+00 0.8000000D+00 0.3047525D+04
EXPONENTS  0.4573695D+03 0.1039487D+03 0.2921016D+02 0.9286663D+01 0.3163927D+01
EXPONENTS  0.7868272D+01 0.1881289D+01 0.5442493D+00 0.7868272D+01 0.1881289D+01
EXPONENTS  0.5442493D+00 0.7868272D+01 0.1881289D+01 0.5442493D+00 0.7868272D+01
EXPONENTS  0.1881289D+01 0.5442493D+00 0.1687145D+00 0.1687145D+00 0.1687145D+00
EXPONENTS  0.1687145D+00 0.8000000D+00 0.8000000D+00 0.8000000D+00 0.8000000D+00
EXPONENTS  0.8000000D+00 0.8000000D+00 0.3047525D+04 0.4573695D+03 0.1039487D+03
EXPONENTS  0.2921016D+02 0.9286663D+01 0.3163927D+01 0.7868272D+01 0.1881289D+01
EXPONENTS  0.5442493D+00 0.7868272D+01 0.1881289D+01 0.5442493D+00 0.7868272D+01
EXPONENTS  0.1881289D+01 0.5442493D+00 0.7868272D+01 0.1881289D+01 0.5442493D+00
EXPONENTS  0.1687145D+00 0.1687145D+00 0.1687145D+00 0.1687145D+00 0.8000000D+00
EXPONENTS  0.8000000D+00 0.8000000D+00 0.8000000D+00 0.8000000D+00 0.8000000D+00
EXPONENTS  0.3047525D+04 0.4573695D+03 0.1039487D+03 0.2921016D+02 0.9286663D+01
EXPONENTS  0.3163927D+01 0.7868272D+01 0.1881289D+01 0.5442493D+00 0.7868272D+01
EXPONENTS  0.1881289D+01 0.5442493D+00 0.7868272D+01 0.1881289D+01 0.5442493D+00
EXPONENTS  0.7868272D+01 0.1881289D+01 0.5442493D+00 0.1687145D+00 0.1687145D+00
EXPONENTS  0.1687145D+00 0.1687145D+00 0.8000000D+00 0.8000000D+00 0.8000000D+00
EXPONENTS  0.8000000D+00 0.8000000D+00 0.8000000D+00 0.1873114D+02 0.2825394D+01
EXPONENTS  0.6401217D+00 0.1612778D+00 0.1873114D+02 0.2825394D+01 0.6401217D+00
EXPONENTS  0.1612778D+00 0.1873114D+02 0.2825394D+01 0.6401217D+00 0.1612778D+00
EXPONENTS  0.1873114D+02 0.2825394D+01 0.6401217D+00 0.1612778D+00 0.1873114D+02
EXPONENTS  0.2825394D+01 0.6401217D+00 0.1612778D+00 0.5484672D+04 0.8252349D+03
EXPONENTS  0.1880470D+03 0.5296450D+02 0.1689757D+02 0.5799635D+01 0.1553962D+02
EXPONENTS  0.3599934D+01 0.1013762D+01 0.1553962D+02 0.3599934D+01 0.1013762D+01
EXPONENTS  0.1553962D+02 0.3599934D+01 0.1013762D+01 0.1553962D+02 0.3599934D+01
EXPONENTS  0.1013762D+01 0.2700058D+00 0.2700058D+00 0.2700058D+00 0.2700058D+00
EXPONENTS  0.8000000D+00 0.8000000D+00 0.8000000D+00 0.8000000D+00 0.8000000D+00
EXPONENTS  0.8000000D+00 0.1873114D+02 0.2825394D+01 0.6401217D+00 0.1612778D+00
MO    1     MO 0.0        OCC NO =    1.0000000  ORB. ENERGY =  -20.407755
  0.11403475D-05  0.21037184D-05  0.33960538D-05  0.44206530D-05  0.37721512D-05
  0.13024332D-05 -0.62064192D-05 -0.28605329D-05  0.80212330D-05  0.22091448D-04
  0.16938321D-04  0.84534095D-05  0.12821488D-05  0.98307037D-06  0.49062101D-06
  0.00000000D+00  0.00000000D+00  0.00000000D+00 -0.29348724D-04 -0.20562510D-05
 -0.12106461D-04  0.00000000D+00 -0.13723565D-04  0.89582535D-06  0.70766949D-05
  0.60874402D-05  0.00000000D+00  0.00000000D+00  0.34981754D-05  0.64534505D-05
  0.10417870D-04  0.13560971D-04  0.11571602D-04  0.39953959D-05 -0.13269009D-04
 -0.61156743D-05  0.17148989D-04 -0.70778784D-05 -0.54268682D-05 -0.27083876D-05
 -0.15971342D-05 -0.12245812D-05 -0.61115185D-06  0.00000000D+00  0.00000000D+00
  0.00000000D+00 -0.46067151D-04  0.83732662D-05 -0.29423914D-04  0.00000000D+00
  0.76923251D-05  0.74435574D-05  0.15571245D-04  0.33350308D-04  0.00000000D+00
  0.00000000D+00 -0.36753341D-05 -0.67802737D-05 -0.10945464D-04 -0.14247742D-04
 -0.12157624D-04 -0.41977354D-05 -0.20582110D-05 -0.94862755D-06  0.26600507D-05
 -0.12164484D-04 -0.93269550D-05 -0.46548042D-05  0.20018481D-04  0.15348902D-04
  0.76601777D-05  0.00000000D+00  0.00000000D+00  0.00000000D+00  0.13998931D-03
 -0.16000071D-04 -0.83697090D-05  0.00000000D+00 -0.22163834D-04 -0.53858244D-04
 -0.25141770D-04  0.63289114D-04  0.00000000D+00  0.00000000D+00 -0.60804724D-05
 -0.11217284D-04 -0.18108175D-04 -0.23571463D-04 -0.20113572D-04 -0.69447332D-05
 -0.13285981D-03 -0.61234964D-04  0.17170923D-03  0.68719934D-04  0.52690087D-04
  0.26296046D-04  0.41547953D-03  0.31856335D-03  0.15898544D-03  0.00000000D+00
  0.00000000D+00  0.00000000D+00  0.22876347D-04 -0.15075470D-03 -0.71523627D-04
  0.00000000D+00 -0.72228636D-05 -0.10583471D-03 -0.82121798D-04  0.51090922D-04
  0.00000000D+00  0.00000000D+00  0.50499278D-05  0.93161307D-05  0.15039123D-04
  0.19576470D-04  0.16704637D-04  0.57677099D-05 -0.38344484D-04 -0.17672938D-04
  0.49556762D-04 -0.31656752D-04 -0.24272389D-04 -0.12113623D-04 -0.64598255D-04
 -0.49529845D-04 -0.24718864D-04  0.00000000D+00  0.00000000D+00  0.00000000D+00
 -0.20943423D-03 -0.74198940D-04 -0.61379927D-05  0.00000000D+00 -0.78752183D-05
 -0.92085290D-04  0.45470148D-05 -0.91636469D-04  0.00000000D+00  0.00000000D+00
 -0.25734648D-05 -0.47475400D-05 -0.76640016D-05 -0.99762529D-05 -0.85127547D-05
 -0.29392496D-05  0.10781357D-04  0.49691178D-05 -0.13933925D-04 -0.16942619D-04
 -0.12990526D-04 -0.64831828D-05  0.32211351D-04  0.24697621D-04  0.12325844D-04
  0.00000000D+00  0.00000000D+00  0.00000000D+00  0.60863470D-04  0.33690988D-04
  0.23823068D-04  0.00000000D+00 -0.70998829D-05  0.31256601D-04 -0.11181067D-04
 -0.23920127D-04  0.00000000D+00  0.00000000D+00 -0.20078138D-06 -0.34056323D-06
 -0.38771920D-06 -0.39898365D-05  0.25245515D-06  0.42821171D-06  0.48750390D-06
 -0.66461453D-05  0.44110701D-05  0.74820097D-05  0.85180036D-05 -0.15066478D-04
 -0.19484604D-05 -0.33049577D-05 -0.37625775D-05 -0.91419515D-05  0.32333033D-05
  0.54842944D-05  0.62436753D-05  0.11995591D-04  0.82723182D+00  0.15225481D+01
  0.24637703D+01  0.32386950D+01  0.27778099D+01  0.94978038D+00 -0.13099442D-01
 -0.58449456D-02  0.17260203D-01 -0.35102327D-02 -0.27044451D-02 -0.11873971D-02
 -0.19043537D-02 -0.14672019D-02 -0.64418066D-03  0.00000000D+00  0.00000000D+00
  0.00000000D+00  0.11849956D-02  0.19508807D-03  0.26242408D-04  0.00000000D+00
 -0.46716451D-02 -0.46730300D-02 -0.44524658D-02  0.76692052D-04  0.00000000D+00
  0.00000000D+00  0.93308767D-04  0.15826933D-03  0.18018404D-03 -0.38776626D-04
MO    2     MO 0.0        OCC NO =    1.0000000  ORB. ENERGY =  -11.081388
 -0.91838417D-04 -0.16942395D-03 -0.27350278D-03 -0.35601936D-03 -0.30379196D-03
 -0.10489206D-03  0.12010078D-03  0.55354339D-04 -0.15521934D-03 -0.13801943D-05
 -0.10582454D-05 -0.52813864D-06 -0.74809124D-04 -0.57358891D-04 -0.28626107D-04
  0.00000000D+00  0.00000000D+00  0.00000000D+00  0.83598484D-03 -0.13903362D-04
  0.42656550D-03  0.00000000D+00  0.22736459D-04 -0.32751864D-04 -0.13466392D-03
 -0.59187283D-06  0.00000000D+00  0.00000000D+00  0.69338414D-05  0.12791583D-04
  0.20649582D-04  0.26879620D-04  0.22936428D-04  0.79193975D-05 -0.25572013D-04
 -0.11786117D-04  0.33049503D-04  0.38181282D-04  0.29274985D-04  0.14610269D-04
 -0.93445828D-04 -0.71648334D-04 -0.35757540D-04  0.00000000D+00  0.00000000D+00
  0.00000000D+00 -0.10546029D-02  0.34698201D-03 -0.24177173D-03  0.00000000D+00
  0.46175129D-04  0.13222906D-03  0.15310776D-04 -0.95015874D-04  0.00000000D+00
  0.00000000D+00  0.26880550D-02  0.49589366D-02  0.80052613D-02  0.10420472D-01
  0.88918073D-02  0.30701274D-02  0.13793007D-03  0.63571844D-04 -0.17826209D-03
  0.15901893D-03  0.12192563D-03  0.60849436D-04  0.32397213D-04  0.24840128D-04
  0.12396965D-04  0.00000000D+00  0.00000000D+00  0.00000000D+00  0.18058316D-02
 -0.82809779D-03 -0.38223981D-03  0.00000000D+00 -0.25021582D-03 -0.48595359D-03
 -0.24445685D-03  0.21479716D-03  0.00000000D+00  0.00000000D+00  0.53414584D+00
  0.98539477D+00  0.15907327D+01  0.20706613D+01  0.17668990D+01  0.61006778D+00
 -0.10730798D-01 -0.49458151D-02  0.13868582D-01 -0.43721768D-04 -0.33523078D-04
 -0.16730366D-04  0.19344975D-02  0.14832500D-02  0.74024570D-03  0.00000000D+00
  0.00000000D+00  0.00000000D+00 -0.29720069D-02  0.80453201D-04  0.14867632D-02
  0.00000000D+00 -0.12919927D-02 -0.53981499D-03 -0.23906445D-02  0.16619648D-03
  0.00000000D+00  0.00000000D+00  0.29657607D-02  0.54712493D-02  0.88322928D-02
  0.11497021D-01  0.98104288D-02  0.33873053D-02  0.13428259D-03  0.61890723D-04
 -0.17354805D-03 -0.21042157D-03 -0.16133791D-03 -0.80518927D-04  0.19919143D-04
  0.15272735D-04  0.76221654D-05  0.00000000D+00  0.00000000D+00  0.00000000D+00
  0.19151696D-02  0.88884299D-03 -0.30782309D-03  0.00000000D+00 -0.30292304D-03
 -0.48347409D-03 -0.24387066D-03 -0.22808910D-03  0.00000000D+00  0.00000000D+00
  0.82972579D-05  0.15306821D-04  0.24709955D-04  0.32165019D-04  0.27446469D-04
  0.94766061D-05 -0.24544604D-04 -0.11312585D-04  0.31721670D-04 -0.33975692D-04
 -0.26050405D-04 -0.13000978D-04 -0.10290085D-03 -0.78897842D-04 -0.39375553D-04
  0.00000000D+00  0.00000000D+00  0.00000000D+00 -0.10359556D-02 -0.36709281D-03
 -0.22602422D-03  0.00000000D+00  0.45519752D-04  0.12901334D-03  0.13502440D-04
  0.88284676D-04  0.00000000D+00  0.00000000D+00  0.17086188D-04  0.28981408D-04
  0.32994309D-04  0.12907626D-03 -0.11140461D-04 -0.18896331D-04 -0.21512805D-04
 -0.74013693D-04  0.30083529D-04  0.51027358D-04  0.58092844D-04  0.27940818D-03
  0.25428804D-04  0.43132065D-04  0.49104331D-04  0.29203716D-03 -0.12851758D-04
 -0.21799013D-04 -0.24817406D-04 -0.80240125D-04  0.38944129D-04  0.71677986D-04
  0.11598851D-03  0.15247015D-03  0.13077276D-03  0.44713427D-04 -0.82701466D-03
 -0.36901233D-03  0.10896984D-02  0.96333613D-05  0.74219856D-05  0.32586514D-05
 -0.54818496D-03 -0.42234696D-03 -0.18543306D-03  0.00000000D+00  0.00000000D+00
  0.00000000D+00 -0.16356497D-02  0.10762363D-04  0.86561304D-03  0.00000000D+00
  0.76534265D-03 -0.76008972D-03  0.10228106D-02  0.23073818D-04  0.00000000D+00
  0.00000000D+00  0.43933336D-04  0.74519254D-04  0.84837537D-04 -0.63810400D-04
MO    3     MO 0.0        OCC NO =    1.0000000  ORB. ENERGY =  -11.006298
  0.53365610D+00  0.98449130D+00  0.15892742D+01  0.20687628D+01  0.17652791D+01
  0.60950843D+00 -0.10759494D-01 -0.49590410D-02  0.13905668D-01 -0.23732370D-04
 -0.18196476D-04 -0.90813168D-05 -0.97524355D-04 -0.74775490D-04 -0.37318210D-04
  0.00000000D+00  0.00000000D+00  0.00000000D+00 -0.29069827D-02  0.81193819D-05
 -0.41908802D-03  0.00000000D+00 -0.13680823D-02 -0.16252733D-02 -0.26063304D-02
 -0.11652574D-04  0.00000000D+00  0.00000000D+00  0.14213161D-01  0.26220507D-01
  0.42328029D-01  0.55098516D-01  0.47015664D-01  0.16233379D-01 -0.19451553D-03
 -0.89652029D-04  0.25139365D-03  0.23460630D-03  0.17988123D-03  0.89773339D-04
  0.76251234D-04  0.58464610D-04  0.29177938D-04  0.00000000D+00  0.00000000D+00
  0.00000000D+00  0.11859658D-02 -0.44595966D-03  0.27059917D-04  0.00000000D+00
 -0.49373386D-03 -0.49152646D-03 -0.21031769D-03 -0.22415086D-03  0.00000000D+00
  0.00000000D+00  0.13671739D-03  0.25221689D-03  0.40715627D-03  0.52999648D-03
  0.45224696D-03  0.15615001D-03 -0.12717049D-04 -0.58612762D-05  0.16435630D-04
 -0.20421385D-05 -0.15657822D-05 -0.78143508D-06 -0.54029123D-05 -0.41426105D-05
 -0.20674530D-05  0.00000000D+00  0.00000000D+00  0.00000000D+00 -0.51816295D-03
  0.22470849D-03  0.13547526D-03  0.00000000D+00  0.48356117D-04  0.13836818D-03
  0.32721701D-04  0.62814863D-04  0.00000000D+00  0.00000000D+00  0.42693457D-04
  0.78761092D-04  0.12714482D-03  0.16550478D-03  0.14122553D-03  0.48761781D-04
  0.73824369D-04  0.34025584D-04 -0.95411290D-04  0.72160894D-06  0.55328396D-06
  0.27612748D-06  0.23542239D-04  0.18050696D-04  0.90085621D-05  0.00000000D+00
  0.00000000D+00  0.00000000D+00  0.50100254D-03 -0.84519297D-05 -0.26866571D-03
  0.00000000D+00 -0.10550533D-04 -0.34139770D-04 -0.77513112D-04 -0.45734858D-06
  0.00000000D+00  0.00000000D+00  0.21195328D-03  0.39101241D-03  0.63121527D-03
  0.82165473D-03  0.70111947D-03  0.24207971D-03 -0.13376025D-04 -0.61649977D-05
  0.17287297D-04  0.19932357D-05  0.15282867D-05  0.76272220D-06 -0.48864939D-05
 -0.37466536D-05 -0.18698427D-05  0.00000000D+00  0.00000000D+00  0.00000000D+00
 -0.52136201D-03 -0.22970282D-03  0.11782807D-03  0.00000000D+00  0.46623495D-04
  0.13535676D-03  0.32340187D-04 -0.71774592D-04  0.00000000D+00  0.00000000D+00
  0.16089049D-01  0.29681154D-01  0.47914585D-01  0.62370553D-01  0.53220906D-01
  0.18375900D-01 -0.23445807D-03 -0.10806151D-03  0.30301575D-03 -0.24457178D-03
 -0.18752213D-03 -0.93586683D-04  0.80946644D-04  0.62064753D-04  0.30974661D-04
  0.00000000D+00  0.00000000D+00  0.00000000D+00  0.11768279D-02  0.44795926D-03
  0.24641480D-04  0.00000000D+00 -0.50405157D-03 -0.49946438D-03 -0.21951077D-03
  0.21753372D-03  0.00000000D+00  0.00000000D+00 -0.63040369D-04 -0.10692840D-03
 -0.12173420D-03  0.28467997D-03 -0.25539620D-05 -0.43320030D-05 -0.49318322D-05
  0.78914196D-04 -0.13006260D-04 -0.22061078D-04 -0.25115757D-04 -0.59322173D-04
 -0.11937824D-04 -0.20248809D-04 -0.23052553D-04 -0.57549020D-04 -0.25554255D-05
 -0.43344853D-05 -0.49346583D-05  0.79471814D-04 -0.15542174D-04 -0.28605896D-04
 -0.46289740D-04 -0.60849159D-04 -0.52189970D-04 -0.17844637D-04  0.54431789D-04
  0.24287358D-04 -0.71720894D-04 -0.52516006D-05 -0.40460751D-05 -0.17764449D-05
  0.16592157D-04  0.12783363D-04  0.56125847D-05  0.00000000D+00  0.00000000D+00
  0.00000000D+00  0.17039614D-03  0.88241107D-06 -0.38663372D-04  0.00000000D+00
 -0.52570567D-04 -0.52039378D-04 -0.52740688D-04  0.12086745D-05  0.00000000D+00
  0.00000000D+00 -0.13843599D-05 -0.23481363D-05 -0.26732702D-05  0.73688252D-05
MO    4     MO 0.0        OCC NO =    1.0000000  ORB. ENERGY =  -10.986078
 -0.16174407D-01 -0.29838622D-01 -0.48168787D-01 -0.62701449D-01 -0.53503260D-01
 -0.18473390D-01  0.45969406D-03  0.21187257D-03 -0.59411280D-03  0.12555683D-03
  0.96269012D-04  0.48044984D-04 -0.16143650D-03 -0.12377927D-03 -0.61774529D-04
  0.00000000D+00  0.00000000D+00  0.00000000D+00  0.13319863D-02 -0.20051831D-03
  0.45724058D-03  0.00000000D+00 -0.42143336D-03 -0.24557150D-03 -0.97719765D-04
  0.47582908D-04  0.00000000D+00  0.00000000D+00 -0.81945735D-02 -0.15117388D-01
 -0.24404152D-01 -0.31766954D-01 -0.27106800D-01 -0.93593265D-02  0.16658179D-03
  0.76777394D-04 -0.21529183D-03  0.83034990D-05  0.63665963D-05  0.31773778D-05
  0.92362502D-05  0.70817708D-05  0.35343000D-05  0.00000000D+00  0.00000000D+00
  0.00000000D+00 -0.55291935D-03  0.21438225D-03 -0.12357715D-03  0.00000000D+00
  0.20810306D-03  0.96776362D-04  0.72670993D-04  0.39840779D-04  0.00000000D+00
  0.00000000D+00 -0.34634576D-03 -0.63894029D-03 -0.10314477D-02 -0.13426385D-02
 -0.11456759D-02 -0.39557434D-03  0.70894158D-04  0.32675053D-04 -0.91624258D-04
  0.48181984D-04  0.36942889D-04  0.18437091D-04  0.59544850D-05  0.45655214D-05
  0.22785152D-05  0.00000000D+00  0.00000000D+00  0.00000000D+00  0.40148661D-03
 -0.17354772D-03 -0.13844722D-03  0.00000000D+00 -0.52982925D-05  0.27097525D-05
 -0.64377469D-04 -0.86434862D-05  0.00000000D+00  0.00000000D+00 -0.17474947D-03
 -0.32237864D-03 -0.52041909D-03 -0.67743102D-03 -0.57805311D-03 -0.19958785D-03
  0.78006438D-05  0.35953096D-05 -0.10081623D-04 -0.13750181D-04 -0.10542766D-04
 -0.52615793D-05  0.11300800D-04  0.86647365D-05  0.43243108D-05  0.00000000D+00
  0.00000000D+00  0.00000000D+00 -0.47572061D-03  0.49973803D-04  0.16519220D-03
  0.00000000D+00  0.53747666D-04  0.59884009D-04  0.16886131D-04  0.10477454D-03
  0.00000000D+00  0.00000000D+00  0.31354803D-01  0.57843489D-01  0.93377326D-01
  0.12154953D+00  0.10371844D+00  0.35811484D-01 -0.58714099D-03 -0.27061274D-03
  0.75882638D-03 -0.43509991D-04 -0.33360701D-04 -0.16649328D-04  0.20868495D-03
  0.16000638D-03  0.79854399D-04  0.00000000D+00  0.00000000D+00  0.00000000D+00
  0.11121715D-02  0.25689864D-03 -0.33081525D-03  0.00000000D+00 -0.44665489D-03
 -0.64631120D-03 -0.36697282D-03 -0.99082887D-04  0.00000000D+00  0.00000000D+00
  0.53262985D+00  0.98259807D+00  0.15862180D+01  0.20647845D+01  0.17618843D+01
  0.60833632D+00 -0.11767875D-01 -0.54238030D-02  0.15208910D-01  0.63712425D-04
  0.48850646D-04  0.24379896D-04  0.10617575D-03  0.81408830D-04  0.40628712D-04
  0.00000000D+00  0.00000000D+00  0.00000000D+00 -0.28954203D-02 -0.42662099D-03
 -0.23341394D-03  0.00000000D+00 -0.26473108D-02 -0.25496079D-02 -0.25832340D-02
 -0.29259849D-03  0.00000000D+00  0.00000000D+00  0.51990276D-05  0.88185348D-05
  0.10039590D-04  0.83110850D-04 -0.71712523D-05 -0.12163801D-04 -0.13848058D-04
 -0.51552912D-04  0.10473910D-04  0.17765734D-04  0.20225660D-04  0.68328861D-04
 -0.54958960D-05 -0.93220799D-05 -0.10612858D-04  0.84485215D-04 -0.54087108D-04
 -0.91741972D-04 -0.10444499D-03  0.23669264D-03 -0.77762351D-05 -0.14312424D-04
 -0.23160203D-04 -0.30444735D-04 -0.26112273D-04 -0.89282295D-05  0.25588833D-04
  0.11417688D-04 -0.33716584D-04  0.16293442D-04  0.12553219D-04  0.55115391D-05
  0.42834050D-04  0.33001326D-04  0.14489360D-04  0.00000000D+00  0.00000000D+00
  0.00000000D+00  0.21293113D-04 -0.25338414D-04 -0.33305923D-04  0.00000000D+00
 -0.23876741D-04 -0.14062109D-04 -0.43000052D-04  0.56829431D-04  0.00000000D+00
  0.00000000D+00 -0.44106004D-05 -0.74812132D-05 -0.85170968D-05  0.86593207D-05
MO    5     MO 0.0        OCC NO =    1.0000000  ORB. ENERGY =  -10.983955
 -0.14768684D-01 -0.27245338D-01 -0.43982424D-01 -0.57252047D-01 -0.48853276D-01
 -0.16867862D-01  0.42925812D-03  0.19784467D-03 -0.55477712D-03 -0.12130654D-03
 -0.93010161D-04 -0.46418589D-04 -0.17112419D-03 -0.13120717D-03 -0.65481576D-04
  0.00000000D+00  0.00000000D+00  0.00000000D+00  0.13682883D-02  0.18636596D-03
  0.47521289D-03  0.00000000D+00 -0.46677150D-03 -0.26786667D-03 -0.10893821D-03
 -0.76582474D-04  0.00000000D+00  0.00000000D+00  0.53330651D+00  0.98384637D+00
  0.15882331D+01  0.20674076D+01  0.17641226D+01  0.60910915D+00 -0.11749208D-01
 -0.54151991D-02  0.15184783D-01 -0.83570562D-04 -0.64076606D-04 -0.31978717D-04
  0.58506546D-04  0.44859109D-04  0.22387839D-04  0.00000000D+00  0.00000000D+00
  0.00000000D+00 -0.29450065D-02  0.43995569D-03 -0.23929529D-03  0.00000000D+00
 -0.26123784D-02 -0.24884111D-02 -0.25793170D-02  0.29022631D-03  0.00000000D+00
  0.00000000D+00  0.18117670D-01  0.33423564D-01  0.53955995D-01  0.70234674D-01
  0.59931374D-01  0.20692863D-01 -0.28712698D-03 -0.13233656D-03  0.37108554D-03
  0.42008569D-04  0.32209507D-04  0.16074801D-04  0.20724070D-03  0.15889903D-03
  0.79301751D-04  0.00000000D+00  0.00000000D+00  0.00000000D+00  0.12132688D-02
 -0.27290192D-03 -0.34657605D-03  0.00000000D+00 -0.39043659D-03 -0.55668402D-03
 -0.30386909D-03  0.11227047D-03  0.00000000D+00  0.00000000D+00 -0.85195457D-04
 -0.15716898D-03 -0.25371947D-03 -0.33026736D-03 -0.28181774D-03 -0.97304893D-04
  0.35081062D-05  0.16168829D-05 -0.45339086D-05  0.18206625D-04  0.13959685D-04
  0.69668612D-05  0.91157522D-05  0.69893806D-05  0.34881908D-05  0.00000000D+00
  0.00000000D+00  0.00000000D+00 -0.51620388D-03 -0.72451190D-04  0.17668302D-03
  0.00000000D+00  0.66185031D-04  0.72316036D-04  0.23054709D-04 -0.11343003D-03
  0.00000000D+00  0.00000000D+00  0.38036812D-03  0.70170492D-03  0.11327693D-02
  0.14745291D-02  0.12582183D-02  0.43443255D-03  0.56557971D-04  0.26067517D-04
 -0.73096039D-04 -0.48148729D-04 -0.36917391D-04 -0.18424366D-04  0.12063372D-04
  0.92494283D-05  0.46161130D-05  0.00000000D+00  0.00000000D+00  0.00000000D+00
  0.42975307D-03  0.17974498D-03 -0.15080106D-03  0.00000000D+00 -0.20334550D-04
 -0.16680427D-04 -0.73197656D-04  0.20438209D-05  0.00000000D+00  0.00000000D+00
  0.77944917D-02  0.14379315D-01  0.23212673D-01  0.30216003D-01  0.25783370D-01
  0.89023782D-02 -0.18646521D-03 -0.85941645D-04  0.24098934D-03 -0.66288853D-05
 -0.50826088D-05 -0.25365780D-05  0.12198740D-04  0.93532203D-05  0.46679125D-05
  0.00000000D+00  0.00000000D+00  0.00000000D+00 -0.64436543D-03 -0.22542202D-03
 -0.13617437D-03  0.00000000D+00  0.12883953D-03  0.23450904D-04 -0.52581711D-05
 -0.48708761D-04  0.00000000D+00  0.00000000D+00  0.46476091D-05  0.78832248D-05
  0.89747728D-05  0.86348056D-04 -0.54403875D-04 -0.92279268D-04 -0.10505669D-03
  0.23576574D-03 -0.36953436D-05 -0.62680021D-05 -0.71358989D-05  0.83820025D-04
  0.10786627D-04  0.18296160D-04  0.20829532D-04  0.68708570D-04 -0.86138487D-05
 -0.14610718D-04 -0.16633786D-04 -0.45091327D-04 -0.88382270D-05 -0.16267056D-04
 -0.26323167D-04 -0.34602540D-04 -0.29678397D-04 -0.10147548D-04  0.24138332D-04
  0.10770477D-04 -0.31805361D-04 -0.43373414D-04 -0.33416877D-04 -0.14671809D-04
  0.29628721D-04  0.22827332D-04  0.10022428D-04  0.00000000D+00  0.00000000D+00
  0.00000000D+00  0.28864718D-04  0.40673706D-04 -0.35268888D-04  0.00000000D+00
 -0.44963302D-04 -0.13428856D-04 -0.37352682D-04 -0.57949736D-04  0.00000000D+00
  0.00000000D+00  0.36786799D-05  0.62397374D-05  0.71037205D-05  0.24330400D-05
MO    6     MO 0.0        OCC NO =    1.0000000  ORB. ENERGY =  -10.977052
  0.77917797D-03  0.14374312D-02  0.23204597D-02  0.30205490D-02  0.25774399D-02
  0.88992807D-03 -0.25843229D-04 -0.11911120D-04  0.33400025D-04 -0.18448203D-05
 -0.14144912D-05 -0.70593026D-06 -0.63914142D-06 -0.49005310D-06 -0.24457084D-06
  0.00000000D+00  0.00000000D+00  0.00000000D+00 -0.57174395D-03  0.18050784D-04
 -0.24787095D-03  0.00000000D+00  0.11043781D-03  0.11975236D-03  0.33031112D-04
 -0.11070122D-03  0.00000000D+00  0.00000000D+00  0.98461678D-04  0.18164257D-03
  0.29322743D-03  0.38169499D-03  0.32570102D-03  0.11245674D-03  0.62574567D-04
  0.28840561D-04 -0.80871942D-04  0.33989220D-04  0.26060778D-04  0.13006155D-04
 -0.20910253D-04 -0.16032656D-04 -0.80014190D-05  0.00000000D+00  0.00000000D+00
  0.00000000D+00  0.48920669D-03 -0.19333144D-03  0.12017121D-03  0.00000000D+00
 -0.26912689D-04 -0.11113446D-04 -0.71795053D-04  0.14723710D-04  0.00000000D+00
  0.00000000D+00 -0.97672961D-03 -0.18018754D-02 -0.29087856D-02 -0.37863746D-02
 -0.32309203D-02 -0.11155591D-02  0.19019402D-04  0.87660250D-05 -0.24580849D-04
 -0.63564432D-05 -0.48737175D-05 -0.24323266D-05  0.89786621D-05  0.68842686D-05
  0.34357325D-05  0.00000000D+00  0.00000000D+00  0.00000000D+00 -0.48706543D-03
  0.18250514D-03  0.14096530D-03  0.00000000D+00  0.17934292D-03  0.61778802D-04
  0.28389075D-04 -0.56684861D-04  0.00000000D+00  0.00000000D+00 -0.32882197D-02
 -0.60661232D-02 -0.97926038D-02 -0.12747060D-01 -0.10877090D-01 -0.37555977D-02
  0.17542318D-03  0.80852386D-04 -0.22671853D-03  0.16543757D-03  0.12684704D-03
  0.63305562D-04  0.11285723D-03  0.86531767D-04  0.43185416D-04  0.00000000D+00
  0.00000000D+00  0.00000000D+00  0.12965833D-02 -0.25254383D-03 -0.39756756D-03
  0.00000000D+00 -0.54155243D-03 -0.39708515D-03 -0.16614794D-03 -0.82652522D-04
  0.00000000D+00  0.00000000D+00  0.53295468D+00  0.98319732D+00  0.15871853D+01
  0.20660437D+01  0.17629588D+01  0.60870732D+00 -0.11681024D-01 -0.53837733D-02
  0.15096662D-01  0.17934618D-03  0.13751127D-03  0.68627763D-04  0.59553954D-04
  0.45662195D-04  0.22788635D-04  0.00000000D+00  0.00000000D+00  0.00000000D+00
 -0.29815371D-02 -0.43511428D-03  0.21667043D-03  0.00000000D+00 -0.25155702D-02
 -0.23880198D-02 -0.25819525D-02  0.29290190D-03  0.00000000D+00  0.00000000D+00
 -0.31639660D-01 -0.58368994D-01 -0.94225654D-01 -0.12265380D+00 -0.10466071D+00
 -0.36136829D-01  0.79347115D-03  0.36571013D-03 -0.10254894D-02 -0.65670126D-04
 -0.50351687D-04 -0.25129021D-04 -0.19812906D-03 -0.15191280D-03 -0.75815133D-04
  0.00000000D+00  0.00000000D+00  0.00000000D+00  0.13473895D-02  0.28224339D-03
  0.36577998D-03  0.00000000D+00 -0.14291397D-03 -0.33023448D-03 -0.45851513D-04
  0.13772178D-03  0.00000000D+00  0.00000000D+00 -0.83681452D-05 -0.14193958D-04
 -0.16159320D-04 -0.46607175D-04  0.76674673D-05  0.13005476D-04  0.14806274D-04
  0.62921955D-04 -0.93543636D-05 -0.15866771D-04 -0.18063758D-04 -0.42667432D-04
 -0.54665268D-04 -0.92722640D-04 -0.10556145D-03  0.24798790D-03  0.44463804D-05
  0.75419028D-05  0.85861898D-05  0.60300798D-04  0.20115092D-05  0.37022507D-05
  0.59909405D-05  0.78752590D-05  0.67545639D-05  0.23095001D-05  0.49525763D-04
  0.22098299D-04 -0.65256573D-04  0.36494370D-05  0.28116945D-05  0.12344853D-05
  0.46347223D-05  0.35708037D-05  0.15677752D-05  0.00000000D+00  0.00000000D+00
  0.00000000D+00  0.62959118D-04  0.35817092D-04 -0.59947672D-05  0.00000000D+00
  0.27336528D-04  0.80436850D-04 -0.54547582D-04  0.72322079D-04  0.00000000D+00
  0.00000000D+00  0.48605683D-06  0.82444438D-06  0.93860079D-06  0.58597218D-05
MO    7     MO 0.0        OCC NO =    1.0000000  ORB. ENERGY =  -10.967877
  0.38541922D-03  0.71102320D-03  0.11478119D-02  0.14941101D-02  0.12749268D-02
  0.44020160D-03 -0.12378127D-04 -0.57050675D-05  0.15997605D-04 -0.32814695D-05
 -0.25160227D-05 -0.12556717D-05 -0.10504309D-04 -0.80540379D-05 -0.40195294D-05
  0.00000000D+00  0.00000000D+00  0.00000000D+00 -0.54522868D-03 -0.36016435D-05
 -0.23464399D-03  0.00000000D+00  0.96485103D-04  0.11704153D-03  0.27695241D-04
  0.11138592D-03  0.00000000D+00  0.00000000D+00 -0.18416663D-01 -0.33975147D-01
 -0.54846422D-01 -0.71393745D-01 -0.60920412D-01 -0.21034354D-01  0.50210046D-03
  0.23141765D-03 -0.64891923D-03  0.68638734D-04  0.52627828D-04  0.26264975D-04
 -0.21120165D-03 -0.16193603D-03 -0.80817427D-04  0.00000000D+00  0.00000000D+00
  0.00000000D+00  0.12959896D-02 -0.27731839D-03  0.36461577D-03  0.00000000D+00
 -0.21326087D-03 -0.41088876D-03 -0.11170550D-03 -0.11461870D-03  0.00000000D+00
  0.00000000D+00  0.53356538D+00  0.98432393D+00  0.15890040D+01  0.20684111D+01
  0.17649789D+01  0.60940482D+00 -0.11719758D-01 -0.54016255D-02  0.15146722D-01
 -0.30098190D-03 -0.23077383D-03 -0.11517232D-03 -0.40482361D-04 -0.31039307D-04
 -0.15490789D-04  0.00000000D+00  0.00000000D+00  0.00000000D+00 -0.29503429D-02