 B3LYP/6-31G* opted&produced                             
GAUSSIAN             43 MOL ORBITALS    400 PRIMITIVES       16 NUCLEI
  H    1    (CENTRE  1)   0.00000000  0.00000000 17.76263372  CHARGE =  1.0
  C    2    (CENTRE  2)   0.00000000  0.00000000 15.74686507  CHARGE =  6.0
  C    3    (CENTRE  3)   0.00000000  0.00000000 13.44807016  CHARGE =  6.0
  C    4    (CENTRE  4)   0.00000000  0.00000000 10.88764066  CHARGE =  6.0
  C    5    (CENTRE  5)   0.00000000  0.00000000  8.56334779  CHARGE =  6.0
  C    6    (CENTRE  6)   0.00000000  0.00000000  6.02839612  CHARGE =  6.0
  C    7    (CENTRE  7)   0.00000000  0.00000000  3.69534254  CHARGE =  6.0
  C    8    (CENTRE  8)   0.00000000  0.00000000  1.16761030  CHARGE =  6.0
  C    9    (CENTRE  9)   0.00000000  0.00000000 -1.16761030  CHARGE =  6.0
  C   10    (CENTRE 10)   0.00000000  0.00000000 -3.69534254  CHARGE =  6.0
  C   11    (CENTRE 11)   0.00000000  0.00000000 -6.02839612  CHARGE =  6.0
  C   12    (CENTRE 12)   0.00000000  0.00000000 -8.56334779  CHARGE =  6.0
  C   13    (CENTRE 13)   0.00000000  0.00000000-10.88764066  CHARGE =  6.0
  C   14    (CENTRE 14)   0.00000000  0.00000000-13.44807016  CHARGE =  6.0
  C   15    (CENTRE 15)   0.00000000  0.00000000-15.74686507  CHARGE =  6.0
  H   16    (CENTRE 16)   0.00000000  0.00000000-17.76263372  CHARGE =  1.0
CENTRE ASSIGNMENTS    1  1  1  1  2  2  2  2  2  2  2  2  2  2  2  2  2  2  2  2
CENTRE ASSIGNMENTS    2  2  2  2  2  2  2  2  2  2  2  2  3  3  3  3  3  3  3  3
CENTRE ASSIGNMENTS    3  3  3  3  3  3  3  3  3  3  3  3  3  3  3  3  3  3  3  3
CENTRE ASSIGNMENTS    4  4  4  4  4  4  4  4  4  4  4  4  4  4  4  4  4  4  4  4
CENTRE ASSIGNMENTS    4  4  4  4  4  4  4  4  5  5  5  5  5  5  5  5  5  5  5  5
CENTRE ASSIGNMENTS    5  5  5  5  5  5  5  5  5  5  5  5  5  5  5  5  6  6  6  6
CENTRE ASSIGNMENTS    6  6  6  6  6  6  6  6  6  6  6  6  6  6  6  6  6  6  6  6
CENTRE ASSIGNMENTS    6  6  6  6  7  7  7  7  7  7  7  7  7  7  7  7  7  7  7  7
CENTRE ASSIGNMENTS    7  7  7  7  7  7  7  7  7  7  7  7  8  8  8  8  8  8  8  8
CENTRE ASSIGNMENTS    8  8  8  8  8  8  8  8  8  8  8  8  8  8  8  8  8  8  8  8
CENTRE ASSIGNMENTS    9  9  9  9  9  9  9  9  9  9  9  9  9  9  9  9  9  9  9  9
CENTRE ASSIGNMENTS    9  9  9  9  9  9  9  9 10 10 10 10 10 10 10 10 10 10 10 10
CENTRE ASSIGNMENTS   10 10 10 10 10 10 10 10 10 10 10 10 10 10 10 10 11 11 11 11
CENTRE ASSIGNMENTS   11 11 11 11 11 11 11 11 11 11 11 11 11 11 11 11 11 11 11 11
CENTRE ASSIGNMENTS   11 11 11 11 12 12 12 12 12 12 12 12 12 12 12 12 12 12 12 12
CENTRE ASSIGNMENTS   12 12 12 12 12 12 12 12 12 12 12 12 13 13 13 13 13 13 13 13
CENTRE ASSIGNMENTS   13 13 13 13 13 13 13 13 13 13 13 13 13 13 13 13 13 13 13 13
CENTRE ASSIGNMENTS   14 14 14 14 14 14 14 14 14 14 14 14 14 14 14 14 14 14 14 14
CENTRE ASSIGNMENTS   14 14 14 14 14 14 14 14 15 15 15 15 15 15 15 15 15 15 15 15
CENTRE ASSIGNMENTS   15 15 15 15 15 15 15 15 15 15 15 15 15 15 15 15 16 16 16 16
TYPE ASSIGNMENTS      1  1  1  1  1  1  1  1  1  1  1  1  1  2  2  2  3  3  3  4
TYPE ASSIGNMENTS      4  4  1  2  3  4  5  6  7  8  9 10  1  1  1  1  1  1  1  1
TYPE ASSIGNMENTS      1  2  2  2  3  3  3  4  4  4  1  2  3  4  5  6  7  8  9 10
TYPE ASSIGNMENTS      1  1  1  1  1  1  1  1  1  2  2  2  3  3  3  4  4  4  1  2
TYPE ASSIGNMENTS      3  4  5  6  7  8  9 10  1  1  1  1  1  1  1  1  1  2  2  2
TYPE ASSIGNMENTS      3  3  3  4  4  4  1  2  3  4  5  6  7  8  9 10  1  1  1  1
TYPE ASSIGNMENTS      1  1  1  1  1  2  2  2  3  3  3  4  4  4  1  2  3  4  5  6
TYPE ASSIGNMENTS      7  8  9 10  1  1  1  1  1  1  1  1  1  2  2  2  3  3  3  4
TYPE ASSIGNMENTS      4  4  1  2  3  4  5  6  7  8  9 10  1  1  1  1  1  1  1  1
TYPE ASSIGNMENTS      1  2  2  2  3  3  3  4  4  4  1  2  3  4  5  6  7  8  9 10
TYPE ASSIGNMENTS      1  1  1  1  1  1  1  1  1  2  2  2  3  3  3  4  4  4  1  2
TYPE ASSIGNMENTS      3  4  5  6  7  8  9 10  1  1  1  1  1  1  1  1  1  2  2  2
TYPE ASSIGNMENTS      3  3  3  4  4  4  1  2  3  4  5  6  7  8  9 10  1  1  1  1
TYPE ASSIGNMENTS      1  1  1  1  1  2  2  2  3  3  3  4  4  4  1  2  3  4  5  6
TYPE ASSIGNMENTS      7  8  9 10  1  1  1  1  1  1  1  1  1  2  2  2  3  3  3  4
TYPE ASSIGNMENTS      4  4  1  2  3  4  5  6  7  8  9 10  1  1  1  1  1  1  1  1
TYPE ASSIGNMENTS      1  2  2  2  3  3  3  4  4  4  1  2  3  4  5  6  7  8  9 10
TYPE ASSIGNMENTS      1  1  1  1  1  1  1  1  1  2  2  2  3  3  3  4  4  4  1  2
TYPE ASSIGNMENTS      3  4  5  6  7  8  9 10  1  1  1  1  1  1  1  1  1  2  2  2
TYPE ASSIGNMENTS      3  3  3  4  4  4  1  2  3  4  5  6  7  8  9 10  1  1  1  1
EXPONENTS  0.1873114D+02 0.2825394D+01 0.6401217D+00 0.1612778D+00 0.3047525D+04
EXPONENTS  0.4573695D+03 0.1039487D+03 0.2921016D+02 0.9286663D+01 0.3163927D+01
EXPONENTS  0.7868272D+01 0.1881289D+01 0.5442493D+00 0.7868272D+01 0.1881289D+01
EXPONENTS  0.5442493D+00 0.7868272D+01 0.1881289D+01 0.5442493D+00 0.7868272D+01
EXPONENTS  0.1881289D+01 0.5442493D+00 0.1687145D+00 0.1687145D+00 0.1687145D+00
EXPONENTS  0.1687145D+00 0.8000000D+00 0.8000000D+00 0.8000000D+00 0.8000000D+00
EXPONENTS  0.8000000D+00 0.8000000D+00 0.3047525D+04 0.4573695D+03 0.1039487D+03
EXPONENTS  0.2921016D+02 0.9286663D+01 0.3163927D+01 0.7868272D+01 0.1881289D+01
EXPONENTS  0.5442493D+00 0.7868272D+01 0.1881289D+01 0.5442493D+00 0.7868272D+01
EXPONENTS  0.1881289D+01 0.5442493D+00 0.7868272D+01 0.1881289D+01 0.5442493D+00
EXPONENTS  0.1687145D+00 0.1687145D+00 0.1687145D+00 0.1687145D+00 0.8000000D+00
EXPONENTS  0.8000000D+00 0.8000000D+00 0.8000000D+00 0.8000000D+00 0.8000000D+00
EXPONENTS  0.3047525D+04 0.4573695D+03 0.1039487D+03 0.2921016D+02 0.9286663D+01
EXPONENTS  0.3163927D+01 0.7868272D+01 0.1881289D+01 0.5442493D+00 0.7868272D+01
EXPONENTS  0.1881289D+01 0.5442493D+00 0.7868272D+01 0.1881289D+01 0.5442493D+00
EXPONENTS  0.7868272D+01 0.1881289D+01 0.5442493D+00 0.1687145D+00 0.1687145D+00
EXPONENTS  0.1687145D+00 0.1687145D+00 0.8000000D+00 0.8000000D+00 0.8000000D+00
EXPONENTS  0.8000000D+00 0.8000000D+00 0.8000000D+00 0.3047525D+04 0.4573695D+03
EXPONENTS  0.1039487D+03 0.2921016D+02 0.9286663D+01 0.3163927D+01 0.7868272D+01
EXPONENTS  0.1881289D+01 0.5442493D+00 0.7868272D+01 0.1881289D+01 0.5442493D+00
EXPONENTS  0.7868272D+01 0.1881289D+01 0.5442493D+00 0.7868272D+01 0.1881289D+01
EXPONENTS  0.5442493D+00 0.1687145D+00 0.1687145D+00 0.1687145D+00 0.1687145D+00
EXPONENTS  0.8000000D+00 0.8000000D+00 0.8000000D+00 0.8000000D+00 0.8000000D+00
EXPONENTS  0.8000000D+00 0.3047525D+04 0.4573695D+03 0.1039487D+03 0.2921016D+02
EXPONENTS  0.9286663D+01 0.3163927D+01 0.7868272D+01 0.1881289D+01 0.5442493D+00
EXPONENTS  0.7868272D+01 0.1881289D+01 0.5442493D+00 0.7868272D+01 0.1881289D+01
EXPONENTS  0.5442493D+00 0.7868272D+01 0.1881289D+01 0.5442493D+00 0.1687145D+00
EXPONENTS  0.1687145D+00 0.1687145D+00 0.1687145D+00 0.8000000D+00 0.8000000D+00
EXPONENTS  0.8000000D+00 0.8000000D+00 0.8000000D+00 0.8000000D+00 0.3047525D+04
EXPONENTS  0.4573695D+03 0.1039487D+03 0.2921016D+02 0.9286663D+01 0.3163927D+01
EXPONENTS  0.7868272D+01 0.1881289D+01 0.5442493D+00 0.7868272D+01 0.1881289D+01
EXPONENTS  0.5442493D+00 0.7868272D+01 0.1881289D+01 0.5442493D+00 0.7868272D+01
EXPONENTS  0.1881289D+01 0.5442493D+00 0.1687145D+00 0.1687145D+00 0.1687145D+00
EXPONENTS  0.1687145D+00 0.8000000D+00 0.8000000D+00 0.8000000D+00 0.8000000D+00
EXPONENTS  0.8000000D+00 0.8000000D+00 0.3047525D+04 0.4573695D+03 0.1039487D+03
EXPONENTS  0.2921016D+02 0.9286663D+01 0.3163927D+01 0.7868272D+01 0.1881289D+01
EXPONENTS  0.5442493D+00 0.7868272D+01 0.1881289D+01 0.5442493D+00 0.7868272D+01
EXPONENTS  0.1881289D+01 0.5442493D+00 0.7868272D+01 0.1881289D+01 0.5442493D+00
EXPONENTS  0.1687145D+00 0.1687145D+00 0.1687145D+00 0.1687145D+00 0.8000000D+00
EXPONENTS  0.8000000D+00 0.8000000D+00 0.8000000D+00 0.8000000D+00 0.8000000D+00
EXPONENTS  0.3047525D+04 0.4573695D+03 0.1039487D+03 0.2921016D+02 0.9286663D+01
EXPONENTS  0.3163927D+01 0.7868272D+01 0.1881289D+01 0.5442493D+00 0.7868272D+01
EXPONENTS  0.1881289D+01 0.5442493D+00 0.7868272D+01 0.1881289D+01 0.5442493D+00
EXPONENTS  0.7868272D+01 0.1881289D+01 0.5442493D+00 0.1687145D+00 0.1687145D+00
EXPONENTS  0.1687145D+00 0.1687145D+00 0.8000000D+00 0.8000000D+00 0.8000000D+00
EXPONENTS  0.8000000D+00 0.8000000D+00 0.8000000D+00 0.3047525D+04 0.4573695D+03
EXPONENTS  0.1039487D+03 0.2921016D+02 0.9286663D+01 0.3163927D+01 0.7868272D+01
EXPONENTS  0.1881289D+01 0.5442493D+00 0.7868272D+01 0.1881289D+01 0.5442493D+00
EXPONENTS  0.7868272D+01 0.1881289D+01 0.5442493D+00 0.7868272D+01 0.1881289D+01
EXPONENTS  0.5442493D+00 0.1687145D+00 0.1687145D+00 0.1687145D+00 0.1687145D+00
EXPONENTS  0.8000000D+00 0.8000000D+00 0.8000000D+00 0.8000000D+00 0.8000000D+00
EXPONENTS  0.8000000D+00 0.3047525D+04 0.4573695D+03 0.1039487D+03 0.2921016D+02
EXPONENTS  0.9286663D+01 0.3163927D+01 0.7868272D+01 0.1881289D+01 0.5442493D+00
EXPONENTS  0.7868272D+01 0.1881289D+01 0.5442493D+00 0.7868272D+01 0.1881289D+01
EXPONENTS  0.5442493D+00 0.7868272D+01 0.1881289D+01 0.5442493D+00 0.1687145D+00
EXPONENTS  0.1687145D+00 0.1687145D+00 0.1687145D+00 0.8000000D+00 0.8000000D+00
EXPONENTS  0.8000000D+00 0.8000000D+00 0.8000000D+00 0.8000000D+00 0.3047525D+04
EXPONENTS  0.4573695D+03 0.1039487D+03 0.2921016D+02 0.9286663D+01 0.3163927D+01
EXPONENTS  0.7868272D+01 0.1881289D+01 0.5442493D+00 0.7868272D+01 0.1881289D+01
EXPONENTS  0.5442493D+00 0.7868272D+01 0.1881289D+01 0.5442493D+00 0.7868272D+01
EXPONENTS  0.1881289D+01 0.5442493D+00 0.1687145D+00 0.1687145D+00 0.1687145D+00
EXPONENTS  0.1687145D+00 0.8000000D+00 0.8000000D+00 0.8000000D+00 0.8000000D+00
EXPONENTS  0.8000000D+00 0.8000000D+00 0.3047525D+04 0.4573695D+03 0.1039487D+03
EXPONENTS  0.2921016D+02 0.9286663D+01 0.3163927D+01 0.7868272D+01 0.1881289D+01
EXPONENTS  0.5442493D+00 0.7868272D+01 0.1881289D+01 0.5442493D+00 0.7868272D+01
EXPONENTS  0.1881289D+01 0.5442493D+00 0.7868272D+01 0.1881289D+01 0.5442493D+00
EXPONENTS  0.1687145D+00 0.1687145D+00 0.1687145D+00 0.1687145D+00 0.8000000D+00
EXPONENTS  0.8000000D+00 0.8000000D+00 0.8000000D+00 0.8000000D+00 0.8000000D+00
EXPONENTS  0.3047525D+04 0.4573695D+03 0.1039487D+03 0.2921016D+02 0.9286663D+01
EXPONENTS  0.3163927D+01 0.7868272D+01 0.1881289D+01 0.5442493D+00 0.7868272D+01
EXPONENTS  0.1881289D+01 0.5442493D+00 0.7868272D+01 0.1881289D+01 0.5442493D+00
EXPONENTS  0.7868272D+01 0.1881289D+01 0.5442493D+00 0.1687145D+00 0.1687145D+00
EXPONENTS  0.1687145D+00 0.1687145D+00 0.8000000D+00 0.8000000D+00 0.8000000D+00
EXPONENTS  0.8000000D+00 0.8000000D+00 0.8000000D+00 0.3047525D+04 0.4573695D+03
EXPONENTS  0.1039487D+03 0.2921016D+02 0.9286663D+01 0.3163927D+01 0.7868272D+01
EXPONENTS  0.1881289D+01 0.5442493D+00 0.7868272D+01 0.1881289D+01 0.5442493D+00
EXPONENTS  0.7868272D+01 0.1881289D+01 0.5442493D+00 0.7868272D+01 0.1881289D+01
EXPONENTS  0.5442493D+00 0.1687145D+00 0.1687145D+00 0.1687145D+00 0.1687145D+00
EXPONENTS  0.8000000D+00 0.8000000D+00 0.8000000D+00 0.8000000D+00 0.8000000D+00
EXPONENTS  0.8000000D+00 0.1873114D+02 0.2825394D+01 0.6401217D+00 0.1612778D+00
MO    1     MO 0.0        OCC NO =    2.0000000  ORB. ENERGY =  -10.241142
 -0.11977797D-04 -0.20316611D-04 -0.23129743D-04 -0.96936966D-04  0.24020252D-04
  0.44312675D-04  0.71534397D-04  0.93116530D-04  0.79456504D-04  0.27434421D-04
 -0.10333676D-04 -0.47627817D-05  0.13355337D-04  0.00000000D+00  0.00000000D+00
  0.00000000D+00  0.00000000D+00  0.00000000D+00  0.00000000D+00 -0.40446434D-04
 -0.31011761D-04 -0.15477042D-04 -0.12862991D-02  0.00000000D+00  0.00000000D+00
  0.46313743D-03 -0.16505104D-04 -0.16505104D-04  0.10716801D-03  0.00000000D+00
  0.00000000D+00  0.00000000D+00  0.36206758D-03  0.66794399D-03  0.10782687D-02
  0.14035855D-02  0.11976820D-02  0.41353082D-03 -0.41267923D-04 -0.19020348D-04
  0.53335041D-04  0.00000000D+00  0.00000000D+00  0.00000000D+00  0.00000000D+00
  0.00000000D+00  0.00000000D+00  0.87699623D-04  0.67242509D-04  0.33558725D-04
 -0.19882649D-02  0.00000000D+00  0.00000000D+00  0.19350696D-02 -0.19732254D-04
 -0.19732254D-04 -0.31452558D-03  0.00000000D+00  0.00000000D+00  0.00000000D+00
  0.13979470D-01  0.25789392D-01  0.41632074D-01  0.54192591D-01  0.46242636D-01
  0.15966471D-01 -0.58094879D-03 -0.26775877D-03  0.75082353D-03  0.00000000D+00
  0.00000000D+00  0.00000000D+00  0.00000000D+00  0.00000000D+00  0.00000000D+00
 -0.20785137D-03 -0.15936725D-03 -0.79535425D-04 -0.45103354D-02  0.00000000D+00
  0.00000000D+00  0.45382071D-02 -0.32034323D-03 -0.32034323D-03  0.62159826D-04
  0.00000000D+00  0.00000000D+00  0.00000000D+00  0.21108320D-01  0.38940728D-01
  0.62862409D-01  0.81828178D-01  0.69824133D-01  0.24108595D-01 -0.71010066D-03
 -0.32728475D-03  0.91774059D-03  0.00000000D+00  0.00000000D+00  0.00000000D+00
  0.00000000D+00  0.00000000D+00  0.00000000D+00  0.25083395D-03  0.19232357D-03
  0.95982938D-04 -0.14841225D-03  0.00000000D+00  0.00000000D+00  0.66546580D-02
 -0.56892257D-03 -0.56892257D-03 -0.12522880D-02  0.00000000D+00  0.00000000D+00
  0.00000000D+00  0.17101376D+00  0.31548699D+00  0.50929382D+00  0.66294923D+00
  0.56569578D+00  0.19532116D+00 -0.62258181D-02 -0.28694739D-02  0.80463043D-02
  0.00000000D+00  0.00000000D+00  0.00000000D+00  0.00000000D+00  0.00000000D+00
  0.00000000D+00  0.48868074D-04  0.37468940D-04  0.18699627D-04 -0.19381397D-02
  0.00000000D+00  0.00000000D+00  0.74433717D-02 -0.37417835D-02 -0.37417835D-02
 -0.24190980D-02  0.00000000D+00  0.00000000D+00  0.00000000D+00  0.14511503D+00
  0.26770890D+00  0.43216516D+00  0.56255064D+00  0.48002548D+00  0.16574126D+00
 -0.50204034D-02 -0.23138993D-02  0.64884153D-02  0.00000000D+00  0.00000000D+00
  0.00000000D+00  0.00000000D+00  0.00000000D+00  0.00000000D+00 -0.25857071D-04
 -0.19825562D-04 -0.98943450D-05  0.49477168D-02  0.00000000D+00  0.00000000D+00
  0.59514815D-02 -0.33656725D-02 -0.33656725D-02 -0.35189597D-02  0.00000000D+00
  0.00000000D+00  0.00000000D+00  0.30095116D+00  0.55519612D+00  0.89625868D+00
  0.11666625D+01  0.99551522D+00  0.34372748D+00 -0.10727994D-01 -0.49445225D-02
  0.13864957D-01  0.00000000D+00  0.00000000D+00  0.00000000D+00  0.00000000D+00
  0.00000000D+00  0.00000000D+00  0.56201866D-03  0.43092026D-03  0.21505941D-03
  0.41764129D-02  0.00000000D+00  0.00000000D+00  0.20352754D-02 -0.66655623D-02
 -0.66655623D-02 -0.52320920D-02  0.00000000D+00  0.00000000D+00  0.00000000D+00
  0.30095116D+00  0.55519612D+00  0.89625868D+00  0.11666625D+01  0.99551522D+00
  0.34372748D+00 -0.10727994D-01 -0.49445225D-02  0.13864957D-01  0.00000000D+00
  0.00000000D+00  0.00000000D+00  0.00000000D+00  0.00000000D+00  0.00000000D+00
 -0.56201866D-03 -0.43092026D-03 -0.21505941D-03  0.41764129D-02  0.00000000D+00
  0.00000000D+00 -0.20352754D-02 -0.66655623D-02 -0.66655623D-02 -0.52320920D-02
  0.00000000D+00  0.00000000D+00  0.00000000D+00  0.14511503D+00  0.26770890D+00
  0.43216516D+00  0.56255064D+00  0.48002548D+00  0.16574126D+00 -0.50204034D-02
 -0.23138993D-02  0.64884153D-02  0.00000000D+00  0.00000000D+00  0.00000000D+00
  0.00000000D+00  0.00000000D+00  0.00000000D+00  0.25857071D-04  0.19825562D-04
  0.98943450D-05  0.49477168D-02  0.00000000D+00  0.00000000D+00 -0.59514815D-02
 -0.33656725D-02 -0.33656725D-02 -0.35189597D-02  0.00000000D+00  0.00000000D+00
  0.00000000D+00  0.17101376D+00  0.31548699D+00  0.50929382D+00  0.66294923D+00
  0.56569578D+00  0.19532116D+00 -0.62258181D-02 -0.28694739D-02  0.80463043D-02
  0.00000000D+00  0.00000000D+00  0.00000000D+00  0.00000000D+00  0.00000000D+00
  0.00000000D+00 -0.48868074D-04 -0.37468940D-04 -0.18699627D-04 -0.19381397D-02
  0.00000000D+00  0.00000000D+00 -0.74433717D-02 -0.37417835D-02 -0.37417835D-02
 -0.24190980D-02  0.00000000D+00  0.00000000D+00  0.00000000D+00  0.21108320D-01
  0.38940728D-01  0.62862409D-01  0.81828178D-01  0.69824133D-01  0.24108595D-01
 -0.71010066D-03 -0.32728475D-03  0.91774059D-03  0.00000000D+00  0.00000000D+00
  0.00000000D+00  0.00000000D+00  0.00000000D+00  0.00000000D+00 -0.25083395D-03
 -0.19232357D-03 -0.95982938D-04 -0.14841225D-03  0.00000000D+00  0.00000000D+00
 -0.66546580D-02 -0.56892257D-03 -0.56892257D-03 -0.12522880D-02  0.00000000D+00
  0.00000000D+00  0.00000000D+00  0.13979470D-01  0.25789392D-01  0.41632074D-01
  0.54192591D-01  0.46242636D-01  0.15966471D-01 -0.58094879D-03 -0.26775877D-03
  0.75082353D-03  0.00000000D+00  0.00000000D+00  0.00000000D+00  0.00000000D+00
  0.00000000D+00  0.00000000D+00  0.20785137D-03  0.15936725D-03  0.79535425D-04
 -0.45103354D-02  0.00000000D+00  0.00000000D+00 -0.45382071D-02 -0.32034323D-03
 -0.32034323D-03  0.62159826D-04  0.00000000D+00  0.00000000D+00  0.00000000D+00
  0.36206758D-03  0.66794399D-03  0.10782687D-02  0.14035855D-02  0.11976820D-02
  0.41353082D-03 -0.41267923D-04 -0.19020348D-04  0.53335041D-04  0.00000000D+00
  0.00000000D+00  0.00000000D+00  0.00000000D+00  0.00000000D+00  0.00000000D+00
 -0.87699623D-04 -0.67242509D-04 -0.33558725D-04 -0.19882649D-02  0.00000000D+00
  0.00000000D+00 -0.19350696D-02 -0.19732254D-04 -0.19732254D-04 -0.31452558D-03
  0.00000000D+00  0.00000000D+00  0.00000000D+00  0.24020252D-04  0.44312675D-04
  0.71534397D-04  0.93116530D-04  0.79456504D-04  0.27434421D-04 -0.10333676D-04
 -0.47627817D-05  0.13355337D-04  0.00000000D+00  0.00000000D+00  0.00000000D+00
  0.00000000D+00  0.00000000D+00  0.00000000D+00  0.40446434D-04  0.31011761D-04
  0.15477042D-04 -0.12862991D-02  0.00000000D+00  0.00000000D+00 -0.46313743D-03
 -0.16505104D-04 -0.16505104D-04  0.10716801D-03  0.00000000D+00  0.00000000D+00
  0.00000000D+00 -0.11977797D-04 -0.20316611D-04 -0.23129743D-04 -0.96936966D-04
MO    2     MO 0.0        OCC NO =    2.0000000  ORB. ENERGY =  -10.240902
 -0.63542186D-05 -0.10777957D-04 -0.12270324D-04 -0.18707260D-05  0.70372544D-04
  0.12982360D-03  0.20957555D-03  0.27280509D-03  0.23278508D-03  0.80375094D-04
 -0.30718633D-04 -0.14158190D-04  0.39701042D-04  0.00000000D+00  0.00000000D+00
  0.00000000D+00  0.00000000D+00  0.00000000D+00  0.00000000D+00 -0.13560876D-03
 -0.10397620D-03 -0.51891409D-04  0.86306762D-04  0.00000000D+00  0.00000000D+00
 -0.98322131D-05 -0.11801719D-04 -0.11801719D-04  0.11457430D-03  0.00000000D+00
  0.00000000D+00  0.00000000D+00  0.10193425D-02  0.18804879D-02  0.30356905D-02
  0.39515670D-02  0.33718793D-02  0.11642289D-02 -0.33165292D-04 -0.15285853D-04
  0.42863127D-04  0.00000000D+00  0.00000000D+00  0.00000000D+00  0.00000000D+00
  0.00000000D+00  0.00000000D+00  0.11489970D-03  0.88097800D-04  0.43966977D-04
  0.74563603D-03  0.00000000D+00  0.00000000D+00 -0.31022448D-03 -0.48965275D-04
 -0.48965275D-04 -0.40868846D-03  0.00000000D+00  0.00000000D+00  0.00000000D+00
  0.36140190D-01  0.66671595D-01  0.10762863D+00  0.14010049D+00  0.11954800D+00
  0.41277053D-01 -0.13429171D-02 -0.61894929D-03  0.17355984D-02  0.00000000D+00
  0.00000000D+00  0.00000000D+00  0.00000000D+00  0.00000000D+00  0.00000000D+00
 -0.25678983D-03 -0.19689015D-03 -0.98261985D-04  0.35051840D-02  0.00000000D+00
  0.00000000D+00 -0.18258394D-02 -0.79110657D-03 -0.79110657D-03 -0.93624884D-04
  0.00000000D+00  0.00000000D+00  0.00000000D+00  0.45202317D-01  0.83389449D-01
  0.13461643D+00  0.17523059D+00  0.14952458D+00  0.51627244D-01 -0.14267009D-02
 -0.65756516D-03  0.18438813D-02  0.00000000D+00  0.00000000D+00  0.00000000D+00
  0.00000000D+00  0.00000000D+00  0.00000000D+00  0.50460691D-03  0.38690058D-03
  0.19309050D-03  0.51094023D-02  0.00000000D+00  0.00000000D+00 -0.56396978D-02
 -0.11691110D-02 -0.11691110D-02 -0.18938041D-02  0.00000000D+00  0.00000000D+00
  0.00000000D+00  0.31911385D+00  0.58870274D+00  0.95034876D+00  0.12370717D+01
  0.10555955D+01  0.36447177D+00 -0.11493507D-01 -0.52973470D-02  0.14854314D-01
  0.00000000D+00  0.00000000D+00  0.00000000D+00  0.00000000D+00  0.00000000D+00
  0.00000000D+00  0.61719566D-03  0.47322649D-03  0.23617318D-03  0.98231170D-02
  0.00000000D+00  0.00000000D+00 -0.11777067D-01 -0.69195087D-02 -0.69195087D-02
 -0.49856472D-02  0.00000000D+00  0.00000000D+00  0.00000000D+00  0.18611076D+00
  0.34333802D+00  0.55425402D+00  0.72147405D+00  0.61563511D+00  0.21256401D+00
 -0.64813718D-02 -0.29872583D-02  0.83765842D-02  0.00000000D+00  0.00000000D+00
  0.00000000D+00  0.00000000D+00  0.00000000D+00  0.00000000D+00 -0.71005369D-03
 -0.54442413D-03 -0.27170580D-03  0.25594277D-02  0.00000000D+00  0.00000000D+00
 -0.17649520D-01 -0.41705248D-02 -0.41705248D-02 -0.33442282D-02  0.00000000D+00
  0.00000000D+00  0.00000000D+00  0.41667128D-01  0.76867715D-01  0.12408833D+00
  0.16152613D+00  0.13783054D+00  0.47589573D-01 -0.14248527D-02 -0.65671331D-03
  0.18414927D-02  0.00000000D+00  0.00000000D+00  0.00000000D+00  0.00000000D+00
  0.00000000D+00  0.00000000D+00 -0.55365805D-04 -0.42450988D-04 -0.21186018D-04
  0.80724889D-02  0.00000000D+00  0.00000000D+00 -0.22104708D-01 -0.95884489D-03
 -0.95884489D-03 -0.11687991D-02  0.00000000D+00  0.00000000D+00  0.00000000D+00
 -0.41667128D-01 -0.76867715D-01 -0.12408833D+00 -0.16152613D+00 -0.13783054D+00
 -0.47589573D-01  0.14248527D-02  0.65671331D-03 -0.18414927D-02  0.00000000D+00
  0.00000000D+00  0.00000000D+00  0.00000000D+00  0.00000000D+00  0.00000000D+00
 -0.55365805D-04 -0.42450988D-04 -0.21186018D-04 -0.80724889D-02  0.00000000D+00
  0.00000000D+00 -0.22104708D-01  0.95884489D-03  0.95884489D-03  0.11687991D-02
  0.00000000D+00  0.00000000D+00  0.00000000D+00 -0.18611076D+00 -0.34333802D+00
 -0.55425402D+00 -0.72147405D+00 -0.61563511D+00 -0.21256401D+00  0.64813718D-02
  0.29872583D-02 -0.83765842D-02  0.00000000D+00  0.00000000D+00  0.00000000D+00
  0.00000000D+00  0.00000000D+00  0.00000000D+00 -0.71005369D-03 -0.54442413D-03
 -0.27170580D-03 -0.25594277D-02  0.00000000D+00  0.00000000D+00 -0.17649520D-01
  0.41705248D-02  0.41705248D-02  0.33442282D-02  0.00000000D+00  0.00000000D+00
  0.00000000D+00 -0.31911385D+00 -0.58870274D+00 -0.95034876D+00 -0.12370717D+01
 -0.10555955D+01 -0.36447177D+00  0.11493507D-01  0.52973470D-02 -0.14854314D-01
  0.00000000D+00  0.00000000D+00  0.00000000D+00  0.00000000D+00  0.00000000D+00
  0.00000000D+00  0.61719566D-03  0.47322649D-03  0.23617318D-03 -0.98231170D-02
  0.00000000D+00  0.00000000D+00 -0.11777067D-01  0.69195087D-02  0.69195087D-02
  0.49856472D-02  0.00000000D+00  0.00000000D+00  0.00000000D+00 -0.45202317D-01
 -0.83389449D-01 -0.13461643D+00 -0.17523059D+00 -0.14952458D+00 -0.51627244D-01
  0.14267009D-02  0.65756516D-03 -0.18438813D-02  0.00000000D+00  0.00000000D+00
  0.00000000D+00  0.00000000D+00  0.00000000D+00  0.00000000D+00  0.50460691D-03
  0.38690058D-03  0.19309050D-03 -0.51094023D-02  0.00000000D+00  0.00000000D+00
 -0.56396978D-02  0.11691110D-02  0.11691110D-02  0.18938041D-02  0.00000000D+00
  0.00000000D+00  0.00000000D+00 -0.36140190D-01 -0.66671595D-01 -0.10762863D+00
 -0.14010049D+00 -0.11954800D+00 -0.41277053D-01  0.13429171D-02  0.61894929D-03
 -0.17355984D-02  0.00000000D+00  0.00000000D+00  0.00000000D+00  0.00000000D+00
  0.00000000D+00  0.00000000D+00 -0.25678983D-03 -0.19689015D-03 -0.98261985D-04
 -0.35051840D-02  0.00000000D+00  0.00000000D+00 -0.18258394D-02  0.79110657D-03
  0.79110657D-03  0.93624884D-04  0.00000000D+00  0.00000000D+00  0.00000000D+00
 -0.10193425D-02 -0.18804879D-02 -0.30356905D-02 -0.39515670D-02 -0.33718793D-02
 -0.11642289D-02  0.33165292D-04  0.15285853D-04 -0.42863127D-04  0.00000000D+00
  0.00000000D+00  0.00000000D+00  0.00000000D+00  0.00000000D+00  0.00000000D+00
  0.11489970D-03  0.88097800D-04  0.43966977D-04 -0.74563603D-03  0.00000000D+00
  0.00000000D+00 -0.31022448D-03  0.48965275D-04  0.48965275D-04  0.40868846D-03
  0.00000000D+00  0.00000000D+00  0.00000000D+00 -0.70372544D-04 -0.12982360D-03
 -0.20957555D-03 -0.27280509D-03 -0.23278508D-03 -0.80375094D-04  0.30718633D-04
  0.14158190D-04 -0.39701042D-04  0.00000000D+00  0.00000000D+00  0.00000000D+00
  0.00000000D+00  0.00000000D+00  0.00000000D+00 -0.13560876D-03 -0.10397620D-03
 -0.51891409D-04 -0.86306762D-04  0.00000000D+00  0.00000000D+00 -0.98322131D-05
  0.11801719D-04  0.11801719D-04 -0.11457430D-03  0.00000000D+00  0.00000000D+00
  0.00000000D+00  0.63542186D-05  0.10777957D-04  0.12270324D-04  0.18707260D-05
MO    3     MO 0.0        OCC NO =    2.0000000  ORB. ENERGY =  -10.240740
 -0.66064645D-05 -0.11205814D-04 -0.12757423D-04 -0.15067823D-04  0.81567938D-04
  0.15047692D-03  0.24291640D-03  0.31620498D-03  0.26981828D-03  0.93161769D-04
 -0.25939003D-04 -0.11955263D-04  0.33523804D-04  0.00000000D+00  0.00000000D+00
  0.00000000D+00  0.00000000D+00  0.00000000D+00  0.00000000D+00 -0.10981469D-03
 -0.84198936D-04 -0.42021170D-04 -0.11340236D-03  0.00000000D+00  0.00000000D+00
  0.57187386D-04 -0.11479114D-04 -0.11479114D-04  0.10246303D-03  0.00000000D+00
  0.00000000D+00  0.00000000D+00  0.11799376D-02  0.21767545D-02  0.35139567D-02
  0.45741276D-02  0.39031113D-02  0.13476505D-02 -0.37888733D-04 -0.17462883D-04
  0.48967746D-04  0.00000000D+00  0.00000000D+00  0.00000000D+00  0.00000000D+00
  0.00000000D+00  0.00000000D+00  0.11619236D-03  0.89088929D-04  0.44461619D-04
  0.25617193D-03  0.00000000D+00  0.00000000D+00  0.40344776D-04 -0.53627260D-04
 -0.53627260D-04 -0.36857724D-03  0.00000000D+00  0.00000000D+00  0.00000000D+00
  0.40594908D-01  0.74889678D-01  0.12089516D+00  0.15736958D+00  0.13428375D+00
  0.46364951D-01 -0.14991815D-02 -0.69097137D-03  0.19375558D-02  0.00000000D+00
  0.00000000D+00  0.00000000D+00  0.00000000D+00  0.00000000D+00  0.00000000D+00
 -0.15745227D-03 -0.12072441D-03 -0.60249942D-04  0.15567527D-02  0.00000000D+00
  0.00000000D+00 -0.58939710D-03 -0.88513558D-03 -0.88513558D-03 -0.29919444D-03
  0.00000000D+00  0.00000000D+00  0.00000000D+00  0.44098923D-01  0.81353901D-01
  0.13133042D+00  0.17095319D+00  0.14587466D+00  0.50367016D-01 -0.14141370D-02
 -0.65177446D-03  0.18276436D-02  0.00000000D+00  0.00000000D+00  0.00000000D+00
  0.00000000D+00  0.00000000D+00  0.00000000D+00  0.39852915D-03  0.30556687D-03
  0.15249928D-03  0.26347666D-02  0.00000000D+00  0.00000000D+00 -0.25352791D-02
 -0.11277193D-02 -0.11277193D-02 -0.16182362D-02  0.00000000D+00  0.00000000D+00
  0.00000000D+00  0.27894900D+00  0.51460643D+00  0.83073433D+00  0.10813693D+01
  0.92273436D+00  0.31859800D+00 -0.10082244D-01 -0.46468972D-02  0.13030385D-01
  0.00000000D+00  0.00000000D+00  0.00000000D+00  0.00000000D+00  0.00000000D+00
  0.00000000D+00  0.61814217D-03  0.47395221D-03  0.23653537D-03  0.21460459D-02
  0.00000000D+00  0.00000000D+00 -0.48026480D-02 -0.60362284D-02 -0.60362284D-02
 -0.46407761D-02  0.00000000D+00  0.00000000D+00  0.00000000D+00  0.11280874D+00
  0.20811009D+00  0.33595421D+00  0.43731256D+00  0.37315960D+00  0.12884304D+00
 -0.40236083D-02 -0.18544774D-02  0.52001482D-02  0.00000000D+00  0.00000000D+00
  0.00000000D+00  0.00000000D+00  0.00000000D+00  0.00000000D+00 -0.11005139D-02
 -0.84380422D-03 -0.42111744D-03 -0.30535636D-02  0.00000000D+00  0.00000000D+00
 -0.47468910D-02 -0.24483437D-02 -0.24483437D-02 -0.15215954D-02  0.00000000D+00
  0.00000000D+00  0.00000000D+00 -0.21787898D+00 -0.40194418D+00 -0.64886253D+00
 -0.84462622D+00 -0.72072109D+00 -0.24884767D+00  0.77949120D-02  0.35926678D-02
 -0.10074216D-01  0.00000000D+00  0.00000000D+00  0.00000000D+00  0.00000000D+00
  0.00000000D+00  0.00000000D+00 -0.90884335D-03 -0.69684344D-03 -0.34777371D-03
 -0.37489201D-02  0.00000000D+00  0.00000000D+00 -0.19094376D-02  0.47091421D-02
  0.47091421D-02  0.33432740D-02  0.00000000D+00  0.00000000D+00  0.00000000D+00
 -0.21787898D+00 -0.40194418D+00 -0.64886253D+00 -0.84462622D+00 -0.72072109D+00
 -0.24884767D+00  0.77949120D-02  0.35926678D-02 -0.10074216D-01  0.00000000D+00
  0.00000000D+00  0.00000000D+00  0.00000000D+00  0.00000000D+00  0.00000000D+00
  0.90884335D-03  0.69684344D-03  0.34777371D-03 -0.37489201D-02  0.00000000D+00
  0.00000000D+00  0.19094376D-02  0.47091421D-02  0.47091421D-02  0.33432740D-02
  0.00000000D+00  0.00000000D+00  0.00000000D+00  0.11280874D+00  0.20811009D+00
  0.33595421D+00  0.43731256D+00  0.37315960D+00  0.12884304D+00 -0.40236083D-02
 -0.18544774D-02  0.52001482D-02  0.00000000D+00  0.00000000D+00  0.00000000D+00
  0.00000000D+00  0.00000000D+00  0.00000000D+00  0.11005139D-02  0.84380422D-03
  0.42111744D-03 -0.30535636D-02  0.00000000D+00  0.00000000D+00  0.47468910D-02
 -0.24483437D-02 -0.24483437D-02 -0.15215954D-02  0.00000000D+00  0.00000000D+00
  0.00000000D+00  0.27894900D+00  0.51460643D+00  0.83073433D+00  0.10813693D+01
  0.92273436D+00  0.31859800D+00 -0.10082244D-01 -0.46468972D-02  0.13030385D-01
  0.00000000D+00  0.00000000D+00  0.00000000D+00  0.00000000D+00  0.00000000D+00
  0.00000000D+00 -0.61814217D-03 -0.47395221D-03 -0.23653537D-03  0.21460459D-02
  0.00000000D+00  0.00000000D+00  0.48026480D-02 -0.60362284D-02 -0.60362284D-02
 -0.46407761D-02  0.00000000D+00  0.00000000D+00  0.00000000D+00  0.44098923D-01
  0.81353901D-01  0.13133042D+00  0.17095319D+00  0.14587466D+00  0.50367016D-01
 -0.14141370D-02 -0.65177446D-03  0.18276436D-02  0.00000000D+00  0.00000000D+00
  0.00000000D+00  0.00000000D+00  0.00000000D+00  0.00000000D+00 -0.39852915D-03
 -0.30556687D-03 -0.15249928D-03  0.26347666D-02  0.00000000D+00  0.00000000D+00
  0.25352791D-02 -0.11277193D-02 -0.11277193D-02 -0.16182362D-02  0.00000000D+00
  0.00000000D+00  0.00000000D+00  0.40594908D-01  0.74889678D-01  0.12089516D+00
  0.15736958D+00  0.13428375D+00  0.46364951D-01 -0.14991815D-02 -0.69097137D-03
  0.19375558D-02  0.00000000D+00  0.00000000D+00  0.00000000D+00  0.00000000D+00
  0.00000000D+00  0.00000000D+00  0.15745227D-03  0.12072441D-03  0.60249942D-04