 B3LYP/6-31G* opted&produced                                         
GAUSSIAN             43 MOL ORBITALS    400 PRIMITIVES       16 NUCLEI
  H    1    (CENTRE  1)   0.00000000  0.00000000 17.76263508  CHARGE =  1.0
  C    2    (CENTRE  2)   0.00000000  0.00000000 15.74686628  CHARGE =  6.0
  C    3    (CENTRE  3)   0.00000000  0.00000000 13.44807118  CHARGE =  6.0
  C    4    (CENTRE  4)   0.00000000  0.00000000 10.88764149  CHARGE =  6.0
  C    5    (CENTRE  5)   0.00000000  0.00000000  8.56334845  CHARGE =  6.0
  C    6    (CENTRE  6)   0.00000000  0.00000000  6.02839657  CHARGE =  6.0
  C    7    (CENTRE  7)   0.00000000  0.00000000  3.69534282  CHARGE =  6.0
  C    8    (CENTRE  8)   0.00000000  0.00000000  1.16761040  CHARGE =  6.0
  C    9    (CENTRE  9)   0.00000000  0.00000000 -1.16761040  CHARGE =  6.0
  C   10    (CENTRE 10)   0.00000000  0.00000000 -3.69534282  CHARGE =  6.0
  C   11    (CENTRE 11)   0.00000000  0.00000000 -6.02839657  CHARGE =  6.0
  C   12    (CENTRE 12)   0.00000000  0.00000000 -8.56334845  CHARGE =  6.0
  C   13    (CENTRE 13)   0.00000000  0.00000000-10.88764149  CHARGE =  6.0
  C   14    (CENTRE 14)   0.00000000  0.00000000-13.44807118  CHARGE =  6.0
  C   15    (CENTRE 15)   0.00000000  0.00000000-15.74686628  CHARGE =  6.0
  H   16    (CENTRE 16)   0.00000000  0.00000000-17.76263508  CHARGE =  1.0
CENTRE ASSIGNMENTS    1  1  1  1  2  2  2  2  2  2  2  2  2  2  2  2  2  2  2  2
CENTRE ASSIGNMENTS    2  2  2  2  2  2  2  2  2  2  2  2  3  3  3  3  3  3  3  3
CENTRE ASSIGNMENTS    3  3  3  3  3  3  3  3  3  3  3  3  3  3  3  3  3  3  3  3
CENTRE ASSIGNMENTS    4  4  4  4  4  4  4  4  4  4  4  4  4  4  4  4  4  4  4  4
CENTRE ASSIGNMENTS    4  4  4  4  4  4  4  4  5  5  5  5  5  5  5  5  5  5  5  5
CENTRE ASSIGNMENTS    5  5  5  5  5  5  5  5  5  5  5  5  5  5  5  5  6  6  6  6
CENTRE ASSIGNMENTS    6  6  6  6  6  6  6  6  6  6  6  6  6  6  6  6  6  6  6  6
CENTRE ASSIGNMENTS    6  6  6  6  7  7  7  7  7  7  7  7  7  7  7  7  7  7  7  7
CENTRE ASSIGNMENTS    7  7  7  7  7  7  7  7  7  7  7  7  8  8  8  8  8  8  8  8
CENTRE ASSIGNMENTS    8  8  8  8  8  8  8  8  8  8  8  8  8  8  8  8  8  8  8  8
CENTRE ASSIGNMENTS    9  9  9  9  9  9  9  9  9  9  9  9  9  9  9  9  9  9  9  9
CENTRE ASSIGNMENTS    9  9  9  9  9  9  9  9 10 10 10 10 10 10 10 10 10 10 10 10
CENTRE ASSIGNMENTS   10 10 10 10 10 10 10 10 10 10 10 10 10 10 10 10 11 11 11 11
CENTRE ASSIGNMENTS   11 11 11 11 11 11 11 11 11 11 11 11 11 11 11 11 11 11 11 11
CENTRE ASSIGNMENTS   11 11 11 11 12 12 12 12 12 12 12 12 12 12 12 12 12 12 12 12
CENTRE ASSIGNMENTS   12 12 12 12 12 12 12 12 12 12 12 12 13 13 13 13 13 13 13 13
CENTRE ASSIGNMENTS   13 13 13 13 13 13 13 13 13 13 13 13 13 13 13 13 13 13 13 13
CENTRE ASSIGNMENTS   14 14 14 14 14 14 14 14 14 14 14 14 14 14 14 14 14 14 14 14
CENTRE ASSIGNMENTS   14 14 14 14 14 14 14 14 15 15 15 15 15 15 15 15 15 15 15 15
CENTRE ASSIGNMENTS   15 15 15 15 15 15 15 15 15 15 15 15 15 15 15 15 16 16 16 16
TYPE ASSIGNMENTS      1  1  1  1  1  1  1  1  1  1  1  1  1  2  2  2  3  3  3  4
TYPE ASSIGNMENTS      4  4  1  2  3  4  5  6  7  8  9 10  1  1  1  1  1  1  1  1
TYPE ASSIGNMENTS      1  2  2  2  3  3  3  4  4  4  1  2  3  4  5  6  7  8  9 10
TYPE ASSIGNMENTS      1  1  1  1  1  1  1  1  1  2  2  2  3  3  3  4  4  4  1  2
TYPE ASSIGNMENTS      3  4  5  6  7  8  9 10  1  1  1  1  1  1  1  1  1  2  2  2
TYPE ASSIGNMENTS      3  3  3  4  4  4  1  2  3  4  5  6  7  8  9 10  1  1  1  1
TYPE ASSIGNMENTS      1  1  1  1  1  2  2  2  3  3  3  4  4  4  1  2  3  4  5  6
TYPE ASSIGNMENTS      7  8  9 10  1  1  1  1  1  1  1  1  1  2  2  2  3  3  3  4
TYPE ASSIGNMENTS      4  4  1  2  3  4  5  6  7  8  9 10  1  1  1  1  1  1  1  1
TYPE ASSIGNMENTS      1  2  2  2  3  3  3  4  4  4  1  2  3  4  5  6  7  8  9 10
TYPE ASSIGNMENTS      1  1  1  1  1  1  1  1  1  2  2  2  3  3  3  4  4  4  1  2
TYPE ASSIGNMENTS      3  4  5  6  7  8  9 10  1  1  1  1  1  1  1  1  1  2  2  2
TYPE ASSIGNMENTS      3  3  3  4  4  4  1  2  3  4  5  6  7  8  9 10  1  1  1  1
TYPE ASSIGNMENTS      1  1  1  1  1  2  2  2  3  3  3  4  4  4  1  2  3  4  5  6
TYPE ASSIGNMENTS      7  8  9 10  1  1  1  1  1  1  1  1  1  2  2  2  3  3  3  4
TYPE ASSIGNMENTS      4  4  1  2  3  4  5  6  7  8  9 10  1  1  1  1  1  1  1  1
TYPE ASSIGNMENTS      1  2  2  2  3  3  3  4  4  4  1  2  3  4  5  6  7  8  9 10
TYPE ASSIGNMENTS      1  1  1  1  1  1  1  1  1  2  2  2  3  3  3  4  4  4  1  2
TYPE ASSIGNMENTS      3  4  5  6  7  8  9 10  1  1  1  1  1  1  1  1  1  2  2  2
TYPE ASSIGNMENTS      3  3  3  4  4  4  1  2  3  4  5  6  7  8  9 10  1  1  1  1
EXPONENTS  0.1873114D+02 0.2825394D+01 0.6401217D+00 0.1612778D+00 0.3047525D+04
EXPONENTS  0.4573695D+03 0.1039487D+03 0.2921016D+02 0.9286663D+01 0.3163927D+01
EXPONENTS  0.7868272D+01 0.1881289D+01 0.5442493D+00 0.7868272D+01 0.1881289D+01
EXPONENTS  0.5442493D+00 0.7868272D+01 0.1881289D+01 0.5442493D+00 0.7868272D+01
EXPONENTS  0.1881289D+01 0.5442493D+00 0.1687145D+00 0.1687145D+00 0.1687145D+00
EXPONENTS  0.1687145D+00 0.8000000D+00 0.8000000D+00 0.8000000D+00 0.8000000D+00
EXPONENTS  0.8000000D+00 0.8000000D+00 0.3047525D+04 0.4573695D+03 0.1039487D+03
EXPONENTS  0.2921016D+02 0.9286663D+01 0.3163927D+01 0.7868272D+01 0.1881289D+01
EXPONENTS  0.5442493D+00 0.7868272D+01 0.1881289D+01 0.5442493D+00 0.7868272D+01
EXPONENTS  0.1881289D+01 0.5442493D+00 0.7868272D+01 0.1881289D+01 0.5442493D+00
EXPONENTS  0.1687145D+00 0.1687145D+00 0.1687145D+00 0.1687145D+00 0.8000000D+00
EXPONENTS  0.8000000D+00 0.8000000D+00 0.8000000D+00 0.8000000D+00 0.8000000D+00
EXPONENTS  0.3047525D+04 0.4573695D+03 0.1039487D+03 0.2921016D+02 0.9286663D+01
EXPONENTS  0.3163927D+01 0.7868272D+01 0.1881289D+01 0.5442493D+00 0.7868272D+01
EXPONENTS  0.1881289D+01 0.5442493D+00 0.7868272D+01 0.1881289D+01 0.5442493D+00
EXPONENTS  0.7868272D+01 0.1881289D+01 0.5442493D+00 0.1687145D+00 0.1687145D+00
EXPONENTS  0.1687145D+00 0.1687145D+00 0.8000000D+00 0.8000000D+00 0.8000000D+00
EXPONENTS  0.8000000D+00 0.8000000D+00 0.8000000D+00 0.3047525D+04 0.4573695D+03
EXPONENTS  0.1039487D+03 0.2921016D+02 0.9286663D+01 0.3163927D+01 0.7868272D+01
EXPONENTS  0.1881289D+01 0.5442493D+00 0.7868272D+01 0.1881289D+01 0.5442493D+00
EXPONENTS  0.7868272D+01 0.1881289D+01 0.5442493D+00 0.7868272D+01 0.1881289D+01
EXPONENTS  0.5442493D+00 0.1687145D+00 0.1687145D+00 0.1687145D+00 0.1687145D+00
EXPONENTS  0.8000000D+00 0.8000000D+00 0.8000000D+00 0.8000000D+00 0.8000000D+00
EXPONENTS  0.8000000D+00 0.3047525D+04 0.4573695D+03 0.1039487D+03 0.2921016D+02
EXPONENTS  0.9286663D+01 0.3163927D+01 0.7868272D+01 0.1881289D+01 0.5442493D+00
EXPONENTS  0.7868272D+01 0.1881289D+01 0.5442493D+00 0.7868272D+01 0.1881289D+01
EXPONENTS  0.5442493D+00 0.7868272D+01 0.1881289D+01 0.5442493D+00 0.1687145D+00
EXPONENTS  0.1687145D+00 0.1687145D+00 0.1687145D+00 0.8000000D+00 0.8000000D+00
EXPONENTS  0.8000000D+00 0.8000000D+00 0.8000000D+00 0.8000000D+00 0.3047525D+04
EXPONENTS  0.4573695D+03 0.1039487D+03 0.2921016D+02 0.9286663D+01 0.3163927D+01
EXPONENTS  0.7868272D+01 0.1881289D+01 0.5442493D+00 0.7868272D+01 0.1881289D+01
EXPONENTS  0.5442493D+00 0.7868272D+01 0.1881289D+01 0.5442493D+00 0.7868272D+01
EXPONENTS  0.1881289D+01 0.5442493D+00 0.1687145D+00 0.1687145D+00 0.1687145D+00
EXPONENTS  0.1687145D+00 0.8000000D+00 0.8000000D+00 0.8000000D+00 0.8000000D+00
EXPONENTS  0.8000000D+00 0.8000000D+00 0.3047525D+04 0.4573695D+03 0.1039487D+03
EXPONENTS  0.2921016D+02 0.9286663D+01 0.3163927D+01 0.7868272D+01 0.1881289D+01
EXPONENTS  0.5442493D+00 0.7868272D+01 0.1881289D+01 0.5442493D+00 0.7868272D+01
EXPONENTS  0.1881289D+01 0.5442493D+00 0.7868272D+01 0.1881289D+01 0.5442493D+00
EXPONENTS  0.1687145D+00 0.1687145D+00 0.1687145D+00 0.1687145D+00 0.8000000D+00
EXPONENTS  0.8000000D+00 0.8000000D+00 0.8000000D+00 0.8000000D+00 0.8000000D+00
EXPONENTS  0.3047525D+04 0.4573695D+03 0.1039487D+03 0.2921016D+02 0.9286663D+01
EXPONENTS  0.3163927D+01 0.7868272D+01 0.1881289D+01 0.5442493D+00 0.7868272D+01
EXPONENTS  0.1881289D+01 0.5442493D+00 0.7868272D+01 0.1881289D+01 0.5442493D+00
EXPONENTS  0.7868272D+01 0.1881289D+01 0.5442493D+00 0.1687145D+00 0.1687145D+00
EXPONENTS  0.1687145D+00 0.1687145D+00 0.8000000D+00 0.8000000D+00 0.8000000D+00
EXPONENTS  0.8000000D+00 0.8000000D+00 0.8000000D+00 0.3047525D+04 0.4573695D+03
EXPONENTS  0.1039487D+03 0.2921016D+02 0.9286663D+01 0.3163927D+01 0.7868272D+01
EXPONENTS  0.1881289D+01 0.5442493D+00 0.7868272D+01 0.1881289D+01 0.5442493D+00
EXPONENTS  0.7868272D+01 0.1881289D+01 0.5442493D+00 0.7868272D+01 0.1881289D+01
EXPONENTS  0.5442493D+00 0.1687145D+00 0.1687145D+00 0.1687145D+00 0.1687145D+00
EXPONENTS  0.8000000D+00 0.8000000D+00 0.8000000D+00 0.8000000D+00 0.8000000D+00
EXPONENTS  0.8000000D+00 0.3047525D+04 0.4573695D+03 0.1039487D+03 0.2921016D+02
EXPONENTS  0.9286663D+01 0.3163927D+01 0.7868272D+01 0.1881289D+01 0.5442493D+00
EXPONENTS  0.7868272D+01 0.1881289D+01 0.5442493D+00 0.7868272D+01 0.1881289D+01
EXPONENTS  0.5442493D+00 0.7868272D+01 0.1881289D+01 0.5442493D+00 0.1687145D+00
EXPONENTS  0.1687145D+00 0.1687145D+00 0.1687145D+00 0.8000000D+00 0.8000000D+00
EXPONENTS  0.8000000D+00 0.8000000D+00 0.8000000D+00 0.8000000D+00 0.3047525D+04
EXPONENTS  0.4573695D+03 0.1039487D+03 0.2921016D+02 0.9286663D+01 0.3163927D+01
EXPONENTS  0.7868272D+01 0.1881289D+01 0.5442493D+00 0.7868272D+01 0.1881289D+01
EXPONENTS  0.5442493D+00 0.7868272D+01 0.1881289D+01 0.5442493D+00 0.7868272D+01
EXPONENTS  0.1881289D+01 0.5442493D+00 0.1687145D+00 0.1687145D+00 0.1687145D+00
EXPONENTS  0.1687145D+00 0.8000000D+00 0.8000000D+00 0.8000000D+00 0.8000000D+00
EXPONENTS  0.8000000D+00 0.8000000D+00 0.3047525D+04 0.4573695D+03 0.1039487D+03
EXPONENTS  0.2921016D+02 0.9286663D+01 0.3163927D+01 0.7868272D+01 0.1881289D+01
EXPONENTS  0.5442493D+00 0.7868272D+01 0.1881289D+01 0.5442493D+00 0.7868272D+01
EXPONENTS  0.1881289D+01 0.5442493D+00 0.7868272D+01 0.1881289D+01 0.5442493D+00
EXPONENTS  0.1687145D+00 0.1687145D+00 0.1687145D+00 0.1687145D+00 0.8000000D+00
EXPONENTS  0.8000000D+00 0.8000000D+00 0.8000000D+00 0.8000000D+00 0.8000000D+00
EXPONENTS  0.3047525D+04 0.4573695D+03 0.1039487D+03 0.2921016D+02 0.9286663D+01
EXPONENTS  0.3163927D+01 0.7868272D+01 0.1881289D+01 0.5442493D+00 0.7868272D+01
EXPONENTS  0.1881289D+01 0.5442493D+00 0.7868272D+01 0.1881289D+01 0.5442493D+00
EXPONENTS  0.7868272D+01 0.1881289D+01 0.5442493D+00 0.1687145D+00 0.1687145D+00
EXPONENTS  0.1687145D+00 0.1687145D+00 0.8000000D+00 0.8000000D+00 0.8000000D+00
EXPONENTS  0.8000000D+00 0.8000000D+00 0.8000000D+00 0.3047525D+04 0.4573695D+03
EXPONENTS  0.1039487D+03 0.2921016D+02 0.9286663D+01 0.3163927D+01 0.7868272D+01
EXPONENTS  0.1881289D+01 0.5442493D+00 0.7868272D+01 0.1881289D+01 0.5442493D+00
EXPONENTS  0.7868272D+01 0.1881289D+01 0.5442493D+00 0.7868272D+01 0.1881289D+01
EXPONENTS  0.5442493D+00 0.1687145D+00 0.1687145D+00 0.1687145D+00 0.1687145D+00
EXPONENTS  0.8000000D+00 0.8000000D+00 0.8000000D+00 0.8000000D+00 0.8000000D+00
EXPONENTS  0.8000000D+00 0.1873114D+02 0.2825394D+01 0.6401217D+00 0.1612778D+00
MO    1     MO 0.0        OCC NO =    2.0000000  ORB. ENERGY =  -10.339853
  0.45767121D-04  0.77629699D-04  0.88378668D-04  0.33913000D-03  0.18066782D-01
  0.33329685D-01  0.53804446D-01  0.70037401D-01  0.59763041D-01  0.20634742D-01
 -0.96250182D-04 -0.44361621D-04  0.12439462D-03  0.16481848D-14  0.12637236D-14
  0.63068664D-15 -0.10080518D-14 -0.77291017D-15 -0.38573634D-15  0.17832204D-02
  0.13672603D-02  0.68235870D-03  0.34559751D-02  0.37533634D-15 -0.23266202D-15
 -0.14438012D-02 -0.69008754D-03 -0.69008754D-03 -0.13776151D-02 -0.22161195D-15
  0.32134157D-14 -0.14849889D-14  0.53210905D+00  0.98163730D+00  0.15846670D+01
  0.20627656D+01  0.17601616D+01  0.60774150D+00 -0.19389225D-01 -0.89364759D-02
  0.25058811D-01  0.24366124D-13  0.18682398D-13  0.93238260D-14 -0.13948802D-13
 -0.10695057D-13 -0.53375830D-14  0.75056702D-03  0.57548719D-03  0.28720844D-03
 -0.41235669D-03 -0.17696219D-14  0.10385331D-14 -0.32899490D-02 -0.11180089D-01
 -0.11180089D-01 -0.75434070D-02  0.14293125D-15  0.20091845D-14 -0.13162332D-14
  0.24936211D-02  0.46002440D-02  0.74262201D-02  0.96667321D-02  0.82486400D-02
  0.28480572D-02  0.18302053D-03  0.84353997D-04 -0.23653741D-03 -0.62778938D-15
 -0.48134908D-15 -0.24022692D-15  0.35903550D-15  0.27528565D-15  0.13738683D-15
 -0.94298241D-03 -0.72301910D-03 -0.36083720D-03  0.48308157D-02  0.82812708D-15
 -0.46393902D-15 -0.53506636D-02 -0.35956357D-03 -0.35956358D-03 -0.20699328D-02
  0.58278204D-16 -0.29213874D-14  0.12161951D-14  0.10487233D-03  0.19346896D-03
  0.31231890D-03  0.40654641D-03  0.34690678D-03  0.11977858D-03 -0.11664077D-03
 -0.53759624D-04  0.15074760D-03 -0.31693230D-15 -0.24300359D-15 -0.12127582D-15
  0.16250027D-15  0.12459490D-15  0.62181589D-16  0.66878533D-03  0.51278217D-03
  0.25591424D-03 -0.13392238D-02 -0.47881890D-15  0.22301625D-15 -0.69532943D-02
 -0.55554345D-05 -0.55554344D-05  0.88466144D-03 -0.18898182D-15 -0.17423778D-14
  0.94388370D-15 -0.24052391D-04 -0.44371964D-04 -0.71630108D-04 -0.93241117D-04
 -0.79562814D-04 -0.27471128D-04 -0.16297751D-04 -0.75116184D-05  0.21063362D-04
 -0.27398087D-15 -0.21007115D-15 -0.10484023D-15  0.25759513D-15  0.19750760D-15
  0.98570137D-16 -0.46055735D-04 -0.35312616D-04 -0.17623470D-04  0.35790970D-03
  0.24522876D-15 -0.12538310D-15 -0.64368504D-02 -0.12681809D-04 -0.12681809D-04
 -0.52884104D-03  0.14311903D-15 -0.71378129D-17  0.44724574D-15  0.12872311D-04
  0.23746900D-04  0.38334860D-04  0.49900598D-04  0.42580270D-04  0.14701944D-04
 -0.36674865D-04 -0.16903412D-04  0.47398931D-04 -0.53456898D-16 -0.40987358D-16
 -0.20455564D-16 -0.86078300D-16 -0.65999381D-16 -0.32938317D-16  0.18079997D-03
  0.13862595D-03  0.69184062D-04 -0.28203091D-02 -0.15015800D-15  0.10072147D-15
 -0.53111350D-02 -0.11357725D-04 -0.11357725D-04  0.22972512D-03 -0.25005038D-15
  0.61901771D-15  0.15665609D-15 -0.46679842D-05 -0.86115193D-05 -0.13901662D-04
 -0.18095834D-04 -0.15441208D-04 -0.53314780D-05 -0.87259202D-05 -0.40217686D-05
  0.11277459D-04 -0.29643878D-15 -0.22729046D-15 -0.11343387D-15 -0.93676009D-16
 -0.71824822D-16 -0.35845620D-16 -0.39281693D-05 -0.30118711D-05 -0.15031347D-05
 -0.42154570D-03  0.13561230D-15 -0.35297178D-16 -0.40441392D-02 -0.43147404D-05
 -0.43147404D-05 -0.15592464D-03  0.17835552D-15  0.87546044D-15 -0.27447533D-15
  0.38562306D-05  0.71139925D-05  0.11484190D-04  0.14949003D-04  0.12756011D-04
  0.44043441D-05 -0.15014915D-04 -0.69203604D-05  0.19405413D-04  0.67248230D-16
  0.51561678D-16  0.25732891D-16 -0.24751132D-15 -0.18977598D-15 -0.94711515D-16
  0.57548625D-04  0.44124636D-04  0.22021286D-04 -0.18925100D-02 -0.94778285D-16
  0.30988850D-16 -0.30384916D-02 -0.44353257D-05 -0.44353257D-05  0.54419463D-04
 -0.13982936D-15  0.62945193D-15 -0.20612465D-15 -0.11914875D-05 -0.21980618D-05
 -0.35483533D-05 -0.46189016D-05 -0.39413171D-05 -0.13608421D-05 -0.59473271D-05
 -0.27411176D-05  0.76863799D-05 -0.10499508D-15 -0.80503565D-16 -0.40176921D-16
  0.20791415D-16  0.15941538D-16  0.79559447D-17  0.41987884D-05  0.32193646D-05
  0.16066886D-05 -0.43130994D-03  0.81956680D-16  0.34530892D-16 -0.21410111D-02
 -0.21077536D-05 -0.21077536D-05 -0.48775938D-04  0.69560328D-16  0.45232323D-15
 -0.54290307D-15  0.12306736D-05  0.22703524D-05  0.36650528D-05  0.47708097D-05
  0.40709406D-05  0.14055980D-05 -0.75563704D-05 -0.34827242D-05  0.97659222D-05
  0.13302655D-15  0.10199632D-15  0.50903313D-16  0.14870544D-15  0.11401790D-15
  0.56902923D-16  0.17955680D-04  0.13767276D-04  0.68708357D-05 -0.11347237D-02
 -0.65956840D-16 -0.49755268D-16 -0.14626635D-02 -0.21007017D-05 -0.21007017D-05
  0.85260183D-05 -0.69967242D-17  0.13756802D-15 -0.83052523D-15  0.27857376D-07
  0.51391420D-07  0.82961686D-07  0.10799146D-06  0.92149312D-07  0.31816943D-07
 -0.43087588D-05 -0.19859030D-05  0.55686793D-05 -0.11938497D-15 -0.91536822D-16
 -0.45683289D-16 -0.60241106D-16 -0.46189059D-16 -0.23051578D-16  0.20347989D-05
  0.15601547D-05  0.77862655D-06 -0.37286449D-03  0.31931424D-16  0.24797818D-16
 -0.88097706D-03 -0.11341266D-05 -0.11341266D-05 -0.18149871D-04 -0.16805877D-15
  0.54219249D-15 -0.64772758D-15  0.56051732D-06  0.10340450D-05  0.16692693D-05
  0.21728926D-05  0.18541332D-05  0.64018763D-06 -0.40706648D-05 -0.18761657D-05
  0.52609644D-05 -0.14884009D-15 -0.11412114D-15 -0.56954446D-16 -0.43447421D-16
 -0.33312727D-16 -0.16625385D-16  0.22545841D-05  0.17286721D-05  0.86272851D-06
 -0.57312911D-03 -0.43546227D-17 -0.27425818D-16 -0.46709168D-03 -0.96920926D-06
 -0.96920926D-06 -0.32945552D-06  0.17325745D-15  0.14778446D-14 -0.15982172D-15
  0.10917147D-06  0.20140004D-06  0.32512212D-06  0.42321239D-06  0.36112790D-06
  0.12468879D-06 -0.20921518D-05 -0.96427087D-06  0.27039162D-05 -0.24834121D-15
 -0.19041229D-15 -0.95029078D-16  0.98829881D-16  0.75776485D-16  0.37817777D-16
 -0.28810472D-05 -0.22090043D-05 -0.11024480D-05 -0.19920898D-03 -0.37120881D-16
  0.17931347D-17 -0.17061645D-03 -0.36987005D-07 -0.36987005D-07 -0.79531935D-05
 -0.99406617D-16  0.24236050D-14  0.29627639D-15 -0.12576040D-06 -0.23200338D-06
 -0.37452539D-06 -0.48752078D-06 -0.41600236D-06 -0.14363562D-06  0.51331095D-06
  0.23658455D-06 -0.66340777D-06  0.36782832D-15  0.28202743D-15  0.14075145D-15
  0.16606479D-15  0.12732794D-15  0.63545568D-16 -0.25351079D-05 -0.19437599D-05
 -0.97007244D-06 -0.10693913D-03  0.42190432D-16 -0.14265252D-16 -0.37363204D-04
 -0.81018221D-06 -0.81018221D-06  0.37147424D-05  0.74660411D-16  0.17733376D-14
  0.33496429D-17 -0.67509920D-06 -0.11450960D-05 -0.13036514D-05 -0.75743635D-05
MO    2     MO 0.0        OCC NO =    2.0000000  ORB. ENERGY =  -10.308672
 -0.24830261D-03 -0.42116822D-03 -0.47948513D-03  0.14886397D-03  0.53205321D+00
  0.98153428D+00  0.15845007D+01  0.20625491D+01  0.17599769D+01  0.60767771D+00
 -0.19594173D-01 -0.90309365D-02  0.25323689D-01  0.82917134D-13  0.63575599D-13
  0.31728680D-13 -0.47922445D-13 -0.36743891D-13 -0.18337777D-13  0.29119785D-03
  0.22327204D-03  0.11142840D-03 -0.28719132D-02 -0.49919325D-14  0.28915812D-14
  0.69249669D-03 -0.11291295D-01 -0.11291295D-01 -0.96650246D-02 -0.10684932D-15
  0.63008276D-14 -0.46292643D-14 -0.18671370D-01 -0.34445032D-01 -0.55604962D-01
 -0.72381139D-01 -0.61762957D-01 -0.21325265D-01  0.11481887D-02  0.52919911D-03
 -0.14839295D-02 -0.65051724D-14 -0.49877536D-14 -0.24892386D-14  0.38658802D-14
  0.29641117D-14  0.14792995D-14 -0.89751735D-03 -0.68815938D-03 -0.34343976D-03
  0.15977215D-02  0.20121271D-14 -0.11235931D-14  0.93957523D-03  0.35981747D-04
  0.35981747D-04  0.54759766D-03  0.15114118D-15 -0.12524910D-13  0.53424320D-14
 -0.21692446D-03 -0.40018326D-03 -0.64601987D-03 -0.84092592D-03 -0.71756361D-03
 -0.24775747D-03 -0.29597927D-04 -0.13641658D-04  0.38252632D-04 -0.39448551D-15
 -0.30246647D-15 -0.15095197D-15  0.57949586D-15  0.44432067D-15  0.22174715D-15
  0.62687274D-05  0.48064626D-05  0.23987617D-05 -0.50741954D-03 -0.91459046D-15
  0.48872860D-15  0.45063471D-03  0.33225236D-04  0.33225236D-04 -0.26237429D-03
 -0.16514825D-15 -0.54371491D-14  0.55105440D-15 -0.26825436D-04 -0.49487691D-04
 -0.79888478D-04 -0.10399106D-03 -0.88735761D-04 -0.30638326D-04 -0.17273964D-04
 -0.79615543D-05  0.22325029D-04 -0.92864487D-15 -0.71202599D-15 -0.35535087D-15
  0.94194203D-16  0.72222140D-16  0.36043910D-16  0.39083053D-04  0.29966406D-04
  0.14955337D-04 -0.49511311D-03  0.48891910D-15 -0.25600326D-15  0.99912576D-03
 -0.12935685D-04 -0.12935685D-04  0.11888568D-03  0.89470874D-16 -0.19430188D-14
 -0.12451780D-14 -0.20678553D-05 -0.38147892D-05 -0.61582525D-05 -0.80162150D-05
 -0.68402508D-05 -0.23617742D-05 -0.41651082D-07 -0.19196946D-07  0.53830240D-07
 -0.16786134D-15 -0.12870543D-15 -0.64233028D-16  0.10397672D-16  0.79722756D-17
  0.39787243D-17 -0.35677366D-04 -0.27355141D-04 -0.13652133D-04 -0.65331045D-03
 -0.26639262D-15  0.13912678D-15  0.14555271D-02 -0.20789937D-05 -0.20789937D-05
 -0.80661319D-04 -0.52560444D-16 -0.16969299D-15 -0.13821469D-14  0.32299558D-05
  0.59586377D-05  0.96190888D-05  0.12521196D-04  0.10684359D-04  0.36890524D-05
  0.65639941D-06  0.30253389D-06 -0.84833660D-06  0.56539289D-16  0.43350740D-16
  0.21635058D-16  0.15970728D-15  0.12245341D-15  0.61112833D-16  0.57624591D-05
  0.44182881D-05  0.22050354D-05  0.44788123D-03  0.13875314D-15 -0.78746765D-16
  0.15311708D-02 -0.10663731D-05 -0.10663731D-05  0.50041801D-04  0.75157328D-16
  0.49935099D-15 -0.19036005D-14 -0.18091199D-05 -0.33374730D-05 -0.53877162D-05
 -0.70132057D-05 -0.59843811D-05 -0.20662630D-05  0.29827798D-05  0.13747605D-05
 -0.38549720D-05  0.72974848D-15  0.55952485D-15  0.27924211D-15  0.14896480D-15
  0.11421676D-15  0.57002168D-16 -0.16119647D-04 -0.12359523D-04 -0.61682680D-05
 -0.44662799D-04 -0.11152504D-15  0.75007012D-16  0.13634519D-02  0.18166642D-06
  0.18166642D-06 -0.21979999D-04  0.13384753D-16 -0.83830345D-15 -0.25955179D-14
  0.47846155D-06  0.88266814D-06  0.14249001D-05  0.18547965D-05  0.15827012D-05
  0.54646869D-06  0.24858710D-05  0.11457357D-05 -0.32127624D-05  0.20324438D-15
  0.15583490D-15  0.77772537D-16 -0.24345651D-15 -0.18666701D-15 -0.93159921D-16
 -0.32567376D-06 -0.24970598D-06 -0.12462079D-06  0.60097475D-03  0.82040526D-16
 -0.67914755D-16  0.11154311D-02  0.38168089D-06  0.38168089D-06  0.21089862D-04
  0.29994005D-16 -0.29607873D-14 -0.25129404D-14 -0.38896620D-06 -0.71756668D-06
 -0.11583751D-05 -0.15078602D-05 -0.12866598D-05 -0.44425273D-06  0.24460865D-05
  0.11273990D-05 -0.31613446D-05 -0.56235347D-17 -0.43117697D-17 -0.21518753D-17
 -0.23321816D-15 -0.17881690D-15 -0.89242164D-16 -0.69989873D-05 -0.53663796D-05
 -0.26781995D-05  0.12741550D-03 -0.66427157D-16  0.58225578D-16  0.83055816D-03
  0.45630449D-06  0.45630449D-06 -0.50508355D-05 -0.60332603D-17 -0.32789045D-14
 -0.13633207D-14  0.19230984D-06  0.35477410D-06  0.57271540D-06  0.74550528D-06
  0.63614101D-06  0.21964420D-06  0.20997617D-05  0.96777826D-06 -0.27137513D-05
 -0.42196044D-15 -0.32353250D-15 -0.16146539D-15 -0.14253667D-15 -0.10928808D-15
 -0.54542412D-16 -0.36288364D-06 -0.27823616D-06 -0.13885934D-06  0.43626626D-03
  0.42026204D-16 -0.71324050D-16  0.58455968D-03  0.46747270D-06  0.46747270D-06
  0.93969893D-05  0.10093545D-15 -0.20077851D-14 -0.20973502D-15 -0.30606397D-06
 -0.56462826D-06 -0.91148509D-06 -0.11864828D-05 -0.10124279D-05 -0.34956702D-06
  0.18119527D-05  0.83512734D-06 -0.23417842D-05 -0.10689029D-15 -0.81956696D-16
 -0.40902135D-16 -0.28297121D-16 -0.21696438D-16 -0.10828043D-16 -0.23393480D-05
 -0.17936637D-05 -0.89516388D-06  0.14612399D-03 -0.61164240D-16  0.63066016D-16
  0.35889983D-03  0.35506160D-06  0.35506160D-06  0.28475507D-06 -0.58672433D-16
 -0.34160413D-15  0.27224022D-15 -0.68436947D-07 -0.12625280D-06 -0.20381117D-06
 -0.26530159D-06 -0.22638233D-06 -0.78164377D-07  0.13975176D-05  0.64411457D-06
 -0.18061645D-05 -0.12972791D-15 -0.99467133D-16 -0.49641071D-16  0.22922393D-15
  0.17575437D-15  0.87713747D-16  0.12809142D-05  0.98212378D-06  0.49014860D-06
  0.23396144D-03  0.43236575D-16 -0.47291998D-16  0.19212997D-03  0.28097241D-06
  0.28097241D-06  0.37827894D-05  0.10684062D-15 -0.58673746D-15 -0.42429503D-15
 -0.98431150D-07 -0.18158625D-06 -0.29313651D-06 -0.38157664D-06 -0.32560004D-06
 -0.11242187D-06  0.86065657D-06  0.39667583D-06 -0.11123204D-05  0.11629544D-15
  0.89167964D-16  0.44501063D-16  0.61108064D-16  0.46853787D-16  0.23383324D-16
  0.75838872D-06  0.58148437D-06  0.29020145D-06  0.82155123D-04  0.32092913D-17
  0.66366412D-16  0.70568547D-04 -0.30584607D-07 -0.30584607D-07  0.14497639D-05
  0.27916522D-17 -0.68432987D-15 -0.16248808D-14  0.10502210D-06  0.19374527D-06
  0.31276495D-06  0.40712703D-06  0.34740223D-06  0.11994964D-06 -0.32777520D-06
 -0.15107129D-06  0.42361967D-06  0.60075730D-16  0.46062259D-16  0.22988296D-16
 -0.22038101D-15 -0.16897418D-15 -0.84329958D-16  0.17933747D-05  0.13750460D-05
  0.68624432D-06  0.44260003D-04 -0.44666706D-17 -0.55165569D-16  0.15480871D-04
  0.28353308D-06  0.28353308D-06 -0.90576880D-06 -0.74477331D-19 -0.28384652D-15
 -0.12972132D-14  0.25465252D-06  0.43193888D-06  0.49174715D-06  0.31567257D-05
MO    3     MO 0.0        OCC NO =    2.0000000  ORB. ENERGY =  -10.294037
  0.15319235D-05  0.25984322D-05  0.29582233D-05 -0.45393034D-04  0.27946476D-04
  0.51555792D-04  0.83227034D-04  0.10833687D-03  0.92444047D-04  0.31918708D-04
  0.17081107D-04  0.78726667D-05 -0.22075779D-04 -0.17305968D-15 -0.13269119D-15
 -0.66222202D-16 -0.36156546D-16 -0.27722546D-16 -0.13835494D-16  0.24098964D-03
  0.18477557D-03  0.92215960D-04 -0.15945942D-03 -0.31010112D-16  0.13351746D-16
  0.11410931D-03  0.43596566D-05  0.43596566D-05 -0.18740702D-03 -0.23987368D-15
  0.77219151D-15 -0.37372262D-16 -0.14947976D-03 -0.27576096D-03 -0.44516370D-03
 -0.57947086D-03 -0.49446354D-03 -0.17072638D-03 -0.16594864D-04 -0.76485577D-05
  0.21447354D-04 -0.16078537D-15 -0.12328003D-15 -0.61525373D-16  0.95899094D-16
  0.73529342D-16  0.36696295D-16 -0.16548948D-03 -0.12688684D-03 -0.63325426D-04
  0.12663029D-02  0.88318027D-16 -0.16581367D-16 -0.17611048D-03  0.43290942D-04
  0.43290942D-04  0.47115876D-03  0.34066917D-15  0.96413676D-15 -0.32236369D-16
  0.19899693D-01  0.36711049D-01  0.59263015D-01  0.77142837D-01  0.65826123D-01
  0.22728178D-01 -0.16055168D-03 -0.73998123D-04  0.20749846D-03 -0.23920065D-15
 -0.18340389D-15 -0.91531393D-16 -0.42605629D-16 -0.32667294D-16 -0.16303269D-16
  0.16835969D-02  0.12908753D-02  0.64423724D-03  0.61262890D-02 -0.14481550D-15
  0.71477310D-16 -0.30609119D-02 -0.75759177D-03 -0.75759177D-03 -0.16569640D-02
 -0.12249965D-15  0.10782027D-14  0.28250889D-16  0.53200051D+00  0.98143706D+00
  0.15843437D+01  0.20623448D+01  0.17598025D+01  0.60761753D+00 -0.19483558D-01
 -0.89799539D-02  0.25180728D-01 -0.30344420D-14 -0.23266177D-14 -0.11611453D-14
  0.17706520D-14  0.13576237D-14  0.67754935D-15  0.75784463D-03  0.58106720D-03
  0.28999326D-03  0.78534460D-03  0.31999521D-15 -0.15728069D-15 -0.66512004D-02
 -0.11270937D-01 -0.11270937D-01 -0.75073339D-02  0.10785874D-15  0.11729674D-14
  0.42983907D-15  0.51658229D-02  0.95299345D-02  0.15384269D-01  0.20025747D-01
  0.17088007D-01  0.59000780D-02  0.11260640D-03  0.51900189D-04 -0.14553355D-03
  0.16172671D-15  0.12400179D-15  0.61885582D-16 -0.20278874D-15 -0.15548555D-15
 -0.77598184D-16 -0.96119009D-03 -0.73697959D-03 -0.36780447D-03  0.63349686D-02
 -0.19025735D-15  0.60004524D-16 -0.97880697D-02 -0.41587963D-03 -0.41587963D-03
 -0.20982386D-02 -0.13166846D-15  0.13330614D-14  0.13212085D-14  0.27585869D-03
  0.50890542D-03  0.82153115D-03  0.10693895D-02  0.91251196D-03  0.31506845D-03
 -0.12620977D-03 -0.58169967D-04  0.16311466D-03  0.15500733D-15  0.11884979D-15
  0.59314374D-16  0.32090066D-16  0.24604627D-16  0.12279433D-16  0.68942220D-03
  0.52860522D-03  0.26381105D-03 -0.27276849D-02  0.10520752D-15 -0.20247475D-16
 -0.11403818D-01 -0.79695455D-05 -0.79695455D-05  0.85013059D-03  0.13134222D-15
  0.11765998D-14  0.12646379D-14 -0.30817011D-04 -0.56851367D-04 -0.91775734D-04
 -0.11946474D-03 -0.10193948D-03 -0.35197251D-04 -0.24621815D-04 -0.11348172D-04
  0.31821459D-04  0.44405698D-15  0.34047472D-15  0.16992075D-15 -0.64784916D-16
 -0.49672964D-16 -0.24790291D-16 -0.18056813D-04 -0.13844819D-04 -0.69095349D-05
  0.18770453D-03 -0.94534845D-16 -0.76764310D-18 -0.10246543D-01 -0.13774915D-04
 -0.13774915D-04 -0.53506764D-03 -0.80236850D-16  0.10734007D-15  0.13204397D-14
  0.13323811D-04  0.24579831D-04  0.39679468D-04  0.51650877D-04  0.44073787D-04
  0.15217620D-04 -0.47131231D-04 -0.21722741D-04  0.60912834D-04 -0.27523402D-15
 -0.21103199D-15 -0.10531975D-15 -0.15068600D-15 -0.11553647D-15 -0.57660795D-16
  0.19745883D-03  0.15139891D-03  0.75558665D-04 -0.46481791D-02  0.10740730D-15
  0.79138251D-17 -0.82405077D-02 -0.13549817D-04 -0.13549817D-04  0.20300795D-03
  0.79654128D-16 -0.19464729D-15  0.10589727D-14 -0.48340262D-05 -0.89178343D-05
 -0.14396150D-04 -0.18739509D-04 -0.15990457D-04 -0.55211207D-05 -0.16838953D-04
 -0.77610582D-05  0.21762817D-04  0.95130963D-17  0.72940389D-17  0.36402366D-17
 -0.32773408D-15 -0.25128571D-15 -0.12540918D-15  0.97177450D-05  0.74509505D-05
  0.37185465D-05 -0.10358129D-02 -0.65713300D-16 -0.16350195D-16 -0.60182794D-02
 -0.61607928D-05 -0.61607928D-05 -0.16445855D-03 -0.11032114D-15 -0.11827323D-15
  0.21484301D-14  0.41480162D-05  0.76522800D-05  0.12353153D-04  0.16080134D-04
  0.13721208D-04  0.47376032D-05 -0.22955085D-04 -0.10579978D-04  0.29667362D-04
 -0.93340357D-16 -0.71567466D-16 -0.35717181D-16  0.31076163D-16  0.23827230D-16
  0.11891458D-16  0.60326653D-04  0.46254651D-04  0.23084313D-04 -0.31774483D-02
  0.92437304D-16  0.10343051D-16 -0.41837992D-02 -0.63279300D-05 -0.63279300D-05
  0.37097979D-04  0.12256948D-15  0.43272425D-15  0.20835644D-14 -0.10276080D-05
 -0.18957362D-05 -0.30603060D-05 -0.39836091D-05 -0.33992208D-05 -0.11736693D-05
 -0.12527841D-04 -0.57740707D-05  0.16191097D-04  0.17065015D-15  0.13084371D-15
  0.65300183D-16  0.10329316D-15  0.79198641D-16  0.39525673D-16  0.51828732D-05
  0.39738984D-05  0.19832538D-05 -0.10544091D-02 -0.96146245D-16 -0.11347407D-16
 -0.25467445D-02 -0.33387174D-05 -0.33387174D-05 -0.59316217D-04 -0.10888292D-15
  0.86688102D-15  0.14487132D-14  0.12569835D-05  0.23188891D-05  0.37434060D-05
  0.48728023D-05  0.41579710D-05  0.14356475D-05 -0.12212606D-04 -0.56287790D-05
  0.15783684D-04 -0.21562584D-16 -0.16532822D-16 -0.82510368D-17  0.31112763D-15
  0.23855293D-15  0.11905463D-15  0.88493066D-05  0.67850870D-05  0.33862340D-05