 b3lyp/lanl2dz+6-31G* opted                              
GAUSSIAN             26 MOL ORBITALS    147 PRIMITIVES       11 NUCLEI
  Pt   1    (CENTRE  1)   0.00000000  0.00000000  0.37338999  CHARGE = 18.0
  Cl   2    (CENTRE  2)  -0.00037850 -3.38796955 -2.65989299  CHARGE =  7.0
  Cl   3    (CENTRE  3)   0.00037850  3.38796955 -2.65989299  CHARGE =  7.0
  N    4    (CENTRE  4)   0.00000000 -3.02721171  2.95923463  CHARGE =  7.0
  H    5    (CENTRE  5)   1.56957594 -3.11078723  4.07613742  CHARGE =  1.0
  H    6    (CENTRE  6)  -1.56910546 -3.11054035  4.07680423  CHARGE =  1.0
  N    7    (CENTRE  7)   0.00000000  3.02721171  2.95923463  CHARGE =  7.0
  H    8    (CENTRE  8)  -1.56957594  3.11078723  4.07613742  CHARGE =  1.0
  H    9    (CENTRE  9)   1.56910546  3.11054035  4.07680423  CHARGE =  1.0
  H   10    (CENTRE 10)   0.00038048  4.57763801  1.78838718  CHARGE =  1.0
  H   11    (CENTRE 11)  -0.00038048 -4.57763801  1.78838718  CHARGE =  1.0
CENTRE ASSIGNMENTS    1  1  1  1  1  1  1  1  1  1  1  1  1  1  1  1  1  1  1  1
CENTRE ASSIGNMENTS    1  1  1  1  1  1  1  1  1  1  1  1  1  1  1  1  1  1  1  1
CENTRE ASSIGNMENTS    1  1  1  2  2  2  2  2  2  2  2  2  2  2  2  3  3  3  3  3
CENTRE ASSIGNMENTS    3  3  3  3  3  3  3  4  4  4  4  4  4  4  4  4  4  4  4  4
CENTRE ASSIGNMENTS    4  4  4  4  4  4  4  4  4  4  4  4  4  4  4  5  5  5  5  6
CENTRE ASSIGNMENTS    6  6  6  7  7  7  7  7  7  7  7  7  7  7  7  7  7  7  7  7
CENTRE ASSIGNMENTS    7  7  7  7  7  7  7  7  7  7  7  8  8  8  8  9  9  9  9 10
CENTRE ASSIGNMENTS   10 10 10 11 11 11 11
TYPE ASSIGNMENTS      1  1  1  1  1  1  1  2  2  2  3  3  3  4  4  4  2  2  3  3
TYPE ASSIGNMENTS      4  4  2  3  4  5  5  6  6  7  7  8  8  9  9 10 10  5  6  7
TYPE ASSIGNMENTS      8  9 10  1  1  1  2  2  3  3  4  4  2  3  4  1  1  1  2  2
TYPE ASSIGNMENTS      3  3  4  4  2  3  4  1  1  1  1  1  1  1  1  1  2  2  2  3
TYPE ASSIGNMENTS      3  3  4  4  4  1  2  3  4  5  6  7  8  9 10  1  1  1  1  1
TYPE ASSIGNMENTS      1  1  1  1  1  1  1  1  1  1  1  1  2  2  2  3  3  3  4  4
TYPE ASSIGNMENTS      4  1  2  3  4  5  6  7  8  9 10  1  1  1  1  1  1  1  1  1
TYPE ASSIGNMENTS      1  1  1  1  1  1  1
EXPONENTS  0.1614000D+01 0.5167000D+00 0.2651000D+00 0.2547000D+01 0.1614000D+01
EXPONENTS  0.5167000D+00 0.5800000D-01 0.2911000D+01 0.1836000D+01 0.5982000D+00
EXPONENTS  0.2911000D+01 0.1836000D+01 0.5982000D+00 0.2911000D+01 0.1836000D+01
EXPONENTS  0.5982000D+00 0.6048000D+00 0.9960000D-01 0.6048000D+00 0.9960000D-01
EXPONENTS  0.6048000D+00 0.9960000D-01 0.2900000D-01 0.2900000D-01 0.2900000D-01
EXPONENTS  0.1243000D+01 0.4271000D+00 0.1243000D+01 0.4271000D+00 0.1243000D+01
EXPONENTS  0.4271000D+00 0.1243000D+01 0.4271000D+00 0.1243000D+01 0.4271000D+00
EXPONENTS  0.1243000D+01 0.4271000D+00 0.1370000D+00 0.1370000D+00 0.1370000D+00
EXPONENTS  0.1370000D+00 0.1370000D+00 0.1370000D+00 0.2231000D+01 0.4720000D+00
EXPONENTS  0.1631000D+00 0.6296000D+01 0.6333000D+00 0.6296000D+01 0.6333000D+00
EXPONENTS  0.6296000D+01 0.6333000D+00 0.1819000D+00 0.1819000D+00 0.1819000D+00
EXPONENTS  0.2231000D+01 0.4720000D+00 0.1631000D+00 0.6296000D+01 0.6333000D+00
EXPONENTS  0.6296000D+01 0.6333000D+00 0.6296000D+01 0.6333000D+00 0.1819000D+00
EXPONENTS  0.1819000D+00 0.1819000D+00 0.4173511D+04 0.6274579D+03 0.1429021D+03
EXPONENTS  0.4023433D+02 0.1282021D+02 0.4390437D+01 0.1162636D+02 0.2716280D+01
EXPONENTS  0.7722184D+00 0.1162636D+02 0.2716280D+01 0.7722184D+00 0.1162636D+02
EXPONENTS  0.2716280D+01 0.7722184D+00 0.1162636D+02 0.2716280D+01 0.7722184D+00
EXPONENTS  0.2120315D+00 0.2120315D+00 0.2120315D+00 0.2120315D+00 0.8000000D+00
EXPONENTS  0.8000000D+00 0.8000000D+00 0.8000000D+00 0.8000000D+00 0.8000000D+00
EXPONENTS  0.1873114D+02 0.2825394D+01 0.6401217D+00 0.1612778D+00 0.1873114D+02
EXPONENTS  0.2825394D+01 0.6401217D+00 0.1612778D+00 0.4173511D+04 0.6274579D+03
EXPONENTS  0.1429021D+03 0.4023433D+02 0.1282021D+02 0.4390437D+01 0.1162636D+02
EXPONENTS  0.2716280D+01 0.7722184D+00 0.1162636D+02 0.2716280D+01 0.7722184D+00
EXPONENTS  0.1162636D+02 0.2716280D+01 0.7722184D+00 0.1162636D+02 0.2716280D+01
EXPONENTS  0.7722184D+00 0.2120315D+00 0.2120315D+00 0.2120315D+00 0.2120315D+00
EXPONENTS  0.8000000D+00 0.8000000D+00 0.8000000D+00 0.8000000D+00 0.8000000D+00
EXPONENTS  0.8000000D+00 0.1873114D+02 0.2825394D+01 0.6401217D+00 0.1612778D+00
EXPONENTS  0.1873114D+02 0.2825394D+01 0.6401217D+00 0.1612778D+00 0.1873114D+02
EXPONENTS  0.2825394D+01 0.6401217D+00 0.1612778D+00 0.1873114D+02 0.2825394D+01
EXPONENTS  0.6401217D+00 0.1612778D+00
MO    1     MO 0.0        OCC NO =    2.0000000  ORB. ENERGY =  -14.423263
  0.00000000D+00  0.00000000D+00  0.00000000D+00  0.00000000D+00  0.00000000D+00
  0.00000000D+00  0.00000000D+00 -0.11751853D-07  0.12174698D-07  0.16852097D-08
  0.18471019D-02 -0.19135628D-02 -0.26487348D-03  0.00000000D+00  0.00000000D+00
  0.00000000D+00  0.54368693D-08 -0.55794417D-08  0.46101116D-03 -0.47310037D-03
  0.00000000D+00  0.00000000D+00  0.15541601D-09  0.32117022D-04  0.00000000D+00
  0.00000000D+00  0.00000000D+00  0.00000000D+00  0.00000000D+00  0.00000000D+00
  0.00000000D+00  0.00000000D+00  0.00000000D+00  0.55193275D-07  0.83787921D-08
 -0.47721333D-03 -0.72444899D-04  0.00000000D+00  0.00000000D+00  0.00000000D+00
  0.00000000D+00 -0.12615977D-07 -0.39163514D-03  0.46865122D-04 -0.37417414D-04
  0.10424409D-03  0.32170768D-07 -0.29075452D-07 -0.23275263D-04  0.21035830D-04
 -0.87361171D-04  0.78955701D-04  0.22679599D-07  0.78477663D-04 -0.48454132D-04
 -0.46865122D-04  0.37417414D-04 -0.10424409D-03  0.32170768D-07 -0.29075452D-07
 -0.23275263D-04  0.21035830D-04  0.87361171D-04 -0.78955701D-04  0.22679599D-07
  0.78477663D-04  0.48454132D-04  0.47786596D+00  0.88003009D+00  0.14218889D+01
  0.18609469D+01  0.15940678D+01  0.54837778D+00 -0.11902325D-01 -0.58839246D-02
  0.15521416D-01  0.85427659D-08  0.66506797D-08  0.31579779D-08 -0.58434020D-03
 -0.45491818D-03 -0.21601124D-03  0.23918597D-03  0.18621009D-03  0.88419139D-04
 -0.39296764D-02  0.25069461D-07 -0.95098523D-04  0.31313429D-03  0.99097112D-04
 -0.34729088D-04 -0.64368024D-04 -0.40288914D-07 -0.65780609D-07  0.24546605D-03
 -0.15564834D-04 -0.26400905D-04 -0.30056497D-04  0.41653606D-03 -0.15575498D-04
 -0.26418992D-04 -0.30077089D-04  0.41655380D-03 -0.47786596D+00 -0.88003009D+00
 -0.14218889D+01 -0.18609469D+01 -0.15940678D+01 -0.54837778D+00  0.11902325D-01
  0.58839246D-02 -0.15521416D-01  0.85427659D-08  0.66506797D-08  0.31579779D-08
 -0.58434020D-03 -0.45491818D-03 -0.21601124D-03 -0.23918597D-03 -0.18621009D-03
 -0.88419139D-04  0.39296764D-02  0.25069461D-07 -0.95098523D-04 -0.31313429D-03
 -0.99097112D-04  0.34729088D-04  0.64368024D-04  0.40288914D-07 -0.65780609D-07
  0.24546605D-03  0.15564834D-04  0.26400905D-04  0.30056497D-04 -0.41653606D-03
  0.15575498D-04  0.26418992D-04  0.30077089D-04 -0.41655380D-03 -0.21376006D-04
 -0.36257751D-04 -0.41278168D-04 -0.55854999D-03  0.21376006D-04  0.36257751D-04
  0.41278168D-04  0.55854999D-03
MO    2     MO 0.0        OCC NO =    2.0000000  ORB. ENERGY =  -14.423244
 -0.31962272D-03 -0.42854094D-03  0.49180504D-03  0.27311862D-03 -0.25157912D-03
 -0.21969898D-04  0.27093195D-03  0.00000000D+00  0.00000000D+00  0.00000000D+00
  0.00000000D+00  0.00000000D+00  0.00000000D+00 -0.13552194D-02  0.14039818D-02
  0.19433778D-03  0.00000000D+00  0.00000000D+00  0.00000000D+00  0.00000000D+00
 -0.30051124D-03  0.30839162D-03  0.00000000D+00  0.00000000D+00 -0.19998307D-04
 -0.17789841D-03 -0.27006438D-04  0.15140330D-03  0.22984263D-04  0.26495106D-04
  0.40221745D-05 -0.41275656D-07 -0.62659833D-08  0.00000000D+00  0.00000000D+00
  0.00000000D+00  0.00000000D+00 -0.81219161D-04  0.52823902D-04  0.28395260D-04
  0.49112931D-08  0.00000000D+00  0.00000000D+00 -0.95490410D-04  0.76240157D-04
 -0.11682282D-03  0.13249209D-07 -0.11974434D-07  0.15176253D-03 -0.13716067D-03
  0.12504717D-03 -0.11301574D-03  0.33044071D-09  0.72997221D-04 -0.61755278D-05
 -0.95490410D-04  0.76240157D-04 -0.11682282D-03 -0.13249209D-07  0.11974434D-07
 -0.15176253D-03  0.13716067D-03  0.12504717D-03 -0.11301574D-03 -0.33044071D-09
 -0.72997221D-04 -0.61755278D-05  0.47784225D+00  0.87998642D+00  0.14218183D+01
  0.18608545D+01  0.15939887D+01  0.54835057D+00 -0.11674729D-01 -0.57714120D-02
  0.15224615D-01  0.57038266D-07  0.44405201D-07  0.21085160D-07 -0.48394668D-03
 -0.37676022D-03 -0.17889908D-03  0.48662847D-03  0.37884803D-03  0.17989045D-03
 -0.33687607D-02 -0.29654522D-08 -0.95056407D-04  0.48343296D-04  0.10380462D-03
 -0.12894496D-03  0.25140344D-04 -0.18935253D-08 -0.17592873D-07  0.17195951D-03
 -0.72634481D-05 -0.12320183D-04 -0.14026093D-04  0.39414919D-03 -0.72765502D-05
 -0.12342406D-04 -0.14051393D-04  0.39417762D-03  0.47784225D+00  0.87998642D+00
  0.14218183D+01  0.18608545D+01  0.15939887D+01  0.54835057D+00 -0.11674729D-01
 -0.57714120D-02  0.15224615D-01 -0.57038266D-07 -0.44405201D-07 -0.21085160D-07
  0.48394668D-03  0.37676022D-03  0.17889908D-03  0.48662847D-03  0.37884803D-03
  0.17989045D-03 -0.33687607D-02  0.29654522D-08  0.95056407D-04  0.48343296D-04
  0.10380462D-03 -0.12894496D-03  0.25140344D-04 -0.18935253D-08  0.17592873D-07
 -0.17195951D-03 -0.72634481D-05 -0.12320183D-04 -0.14026093D-04  0.39414919D-03
 -0.72765502D-05 -0.12342406D-04 -0.14051393D-04  0.39417762D-03 -0.99457302D-05
 -0.16869841D-04 -0.19205718D-04  0.38929556D-03 -0.99457302D-05 -0.16869841D-04
 -0.19205718D-04  0.38929556D-03
MO    3     MO 0.0        OCC NO =    2.0000000  ORB. ENERGY =   -3.941062
  0.40386060D-02  0.54148467D-02 -0.62142229D-02 -0.21376541D+01  0.19690680D+01
  0.17195474D+00 -0.23453442D-02  0.00000000D+00  0.00000000D+00  0.00000000D+00
  0.00000000D+00  0.00000000D+00  0.00000000D+00 -0.15740188D-02  0.16306538D-02
  0.22571350D-03  0.00000000D+00  0.00000000D+00  0.00000000D+00  0.00000000D+00
  0.14190472D-03 -0.14562592D-03  0.00000000D+00  0.00000000D+00 -0.46288824D-04
 -0.14130926D-01 -0.21451906D-02  0.87797775D-02  0.13328423D-02  0.53511488D-02
  0.81234829D-03  0.21805433D-05  0.33102437D-06  0.00000000D+00  0.00000000D+00
  0.00000000D+00  0.00000000D+00  0.68627672D-03 -0.49259765D-03 -0.19367908D-03
 -0.11464331D-06  0.00000000D+00  0.00000000D+00  0.36835608D-03 -0.29409786D-03
  0.15588823D-02  0.50584739D-07 -0.45717719D-07 -0.12382292D-03  0.11190927D-03
 -0.26981645D-03  0.24385601D-03  0.12543734D-06  0.59915193D-03  0.58257609D-03
  0.36835608D-03 -0.29409786D-03  0.15588823D-02 -0.50584739D-07  0.45717719D-07
  0.12382292D-03 -0.11190927D-03 -0.26981645D-03  0.24385601D-03 -0.12543734D-06
 -0.59915193D-03  0.58257609D-03 -0.19570242D-03 -0.36040236D-03 -0.58231202D-03
 -0.76212125D-03 -0.65282516D-03 -0.22457942D-03  0.13112905D-03  0.64823755D-04
 -0.17100091D-03  0.13912251D-06  0.10830909D-06  0.51428989D-07  0.11689854D-03
  0.91007377D-04  0.43213522D-04 -0.58078388D-03 -0.45214953D-03 -0.21469659D-03
  0.79641653D-03 -0.94159491D-07  0.10605120D-02 -0.74934735D-03 -0.10778390D-03
 -0.11756317D-03  0.22534707D-03 -0.14178615D-06 -0.57085082D-07  0.41040185D-05
 -0.18734100D-03 -0.31776579D-03 -0.36176512D-03  0.87458104D-03 -0.18737983D-03
 -0.31783165D-03 -0.36184010D-03  0.87457597D-03 -0.19570242D-03 -0.36040236D-03
 -0.58231202D-03 -0.76212125D-03 -0.65282516D-03 -0.22457942D-03  0.13112905D-03
  0.64823755D-04 -0.17100091D-03 -0.13912251D-06 -0.10830909D-06 -0.51428989D-07
 -0.11689854D-03 -0.91007377D-04 -0.43213522D-04 -0.58078388D-03 -0.45214953D-03
 -0.21469659D-03  0.79641653D-03  0.94159491D-07 -0.10605120D-02 -0.74934735D-03
 -0.10778390D-03 -0.11756317D-03  0.22534707D-03 -0.14178615D-06  0.57085082D-07
 -0.41040185D-05 -0.18734100D-03 -0.31776579D-03 -0.36176512D-03  0.87458104D-03
 -0.18737983D-03 -0.31783165D-03 -0.36184010D-03  0.87457597D-03 -0.84841865D-04
 -0.14390786D-03 -0.16383401D-03  0.89620340D-03 -0.84841865D-04 -0.14390786D-03
 -0.16383401D-03  0.89620340D-03
MO    4     MO 0.0        OCC NO =    2.0000000  ORB. ENERGY =   -2.172267
  0.00000000D+00  0.00000000D+00  0.00000000D+00  0.00000000D+00  0.00000000D+00
  0.00000000D+00  0.00000000D+00 -0.12913869D-03  0.13378525D-03  0.18518423D-04
 -0.28343697D+01  0.29363535D+01  0.40644717D+00  0.00000000D+00  0.00000000D+00
  0.00000000D+00 -0.21977165D-07  0.22553478D-07 -0.98231283D-04  0.10080723D-03
  0.00000000D+00  0.00000000D+00  0.10383980D-08 -0.11672530D-05  0.00000000D+00
  0.00000000D+00  0.00000000D+00  0.00000000D+00  0.00000000D+00  0.00000000D+00
  0.00000000D+00  0.00000000D+00  0.00000000D+00 -0.63297475D-06 -0.96090761D-07
  0.16552065D-02  0.25127393D-03  0.00000000D+00  0.00000000D+00  0.00000000D+00
  0.00000000D+00 -0.72960299D-08 -0.55948439D-03  0.18057948D-02 -0.14417582D-02
 -0.46608613D-05  0.29886139D-06 -0.27010639D-06  0.23648496D-02 -0.21373152D-02
  0.20724092D-02 -0.18730120D-02  0.39647821D-08  0.11071427D-04 -0.21881128D-03
 -0.18057948D-02  0.14417582D-02  0.46608613D-05  0.29886139D-06 -0.27010639D-06
  0.23648496D-02 -0.21373152D-02 -0.20724092D-02  0.18730120D-02  0.39647821D-08
  0.11071427D-04  0.21881128D-03  0.15707575D-02  0.28926812D-02  0.46737848D-02
  0.61169796D-02  0.52397412D-02  0.18025317D-02  0.17375787D-02  0.85897347D-03
 -0.22659170D-02 -0.37253222D-07 -0.29002228D-07 -0.13771284D-07 -0.85441252D-02
 -0.66517379D-02 -0.31584804D-02  0.78172127D-02  0.60858249D-02  0.28897649D-02
 -0.20444565D-02  0.84943663D-07 -0.37024207D-03  0.90660100D-03  0.99703570D-03
 -0.36548999D-04 -0.96048670D-03 -0.56467273D-07 -0.15056191D-06  0.26992674D-02
  0.38020336D-04  0.64489686D-04  0.73419228D-04 -0.11959715D-03  0.38018604D-04
  0.64486749D-04  0.73415884D-04 -0.11955711D-03 -0.15707575D-02 -0.28926812D-02
 -0.46737848D-02 -0.61169796D-02 -0.52397412D-02 -0.18025317D-02 -0.17375787D-02
 -0.85897347D-03  0.22659170D-02 -0.37253222D-07 -0.29002228D-07 -0.13771284D-07
 -0.85441252D-02 -0.66517379D-02 -0.31584804D-02 -0.78172127D-02 -0.60858249D-02
 -0.28897649D-02  0.20444565D-02  0.84943663D-07 -0.37024207D-03 -0.90660100D-03
 -0.99703570D-03  0.36548999D-04  0.96048670D-03  0.56467273D-07 -0.15056191D-06
  0.26992674D-02 -0.38020336D-04 -0.64489686D-04 -0.73419228D-04  0.11959715D-03
 -0.38018604D-04 -0.64486749D-04 -0.73415884D-04  0.11955711D-03 -0.10994013D-03
 -0.18647926D-03 -0.21230005D-03 -0.22656814D-03  0.10994013D-03  0.18647926D-03
  0.21230005D-03  0.22656814D-03
MO    5     MO 0.0        OCC NO =    2.0000000  ORB. ENERGY =   -2.166437
 -0.37995985D-04 -0.50943923D-04  0.58464609D-04  0.27292596D-02 -0.25140165D-02
 -0.21954400D-03 -0.96565635D-04  0.00000000D+00  0.00000000D+00  0.00000000D+00
  0.00000000D+00  0.00000000D+00  0.00000000D+00 -0.28359768D+01  0.29380186D+01
  0.40667764D+00  0.00000000D+00  0.00000000D+00  0.00000000D+00  0.00000000D+00
 -0.35422841D-03  0.36351743D-03  0.00000000D+00  0.00000000D+00 -0.61245605D-05
 -0.25739546D-03 -0.39074743D-04 -0.11909871D-02 -0.18080161D-03  0.14483825D-02
  0.21987635D-03 -0.77751028D-06 -0.11803244D-06  0.00000000D+00  0.00000000D+00
  0.00000000D+00  0.00000000D+00  0.54009217D-04 -0.65839896D-05 -0.47425228D-04
  0.42016220D-08  0.00000000D+00  0.00000000D+00  0.16354808D-02 -0.13057784D-02
 -0.19681677D-03  0.26922573D-06 -0.24332213D-06  0.22276035D-02 -0.20132743D-02
  0.18450166D-02 -0.16674980D-02 -0.22066779D-07 -0.24279591D-03 -0.14365499D-03
  0.16354808D-02 -0.13057784D-02 -0.19681677D-03 -0.26922573D-06  0.24332213D-06
 -0.22276035D-02  0.20132743D-02  0.18450166D-02 -0.16674980D-02  0.22066779D-07
  0.24279591D-03 -0.14365499D-03 -0.13085057D-02 -0.24097225D-02 -0.38934550D-02
 -0.50956957D-02 -0.43649200D-02 -0.15015831D-02 -0.17628164D-02 -0.87144975D-03
  0.22988286D-02  0.17319878D-07  0.13483802D-07  0.64025860D-08  0.82223016D-02
  0.64011931D-02  0.30395129D-02 -0.60726689D-02 -0.47276697D-02 -0.22448648D-02
  0.10493236D-02 -0.11050492D-07  0.60104712D-03  0.12151898D-03 -0.57904373D-03
  0.11914275D-02 -0.61238375D-03 -0.70943364D-07 -0.19070742D-06 -0.21094579D-02
 -0.79056896D-04 -0.13409546D-03 -0.15266294D-03 -0.10070477D-03 -0.79092274D-04
 -0.13415547D-03 -0.15273126D-03 -0.10081167D-03 -0.13085057D-02 -0.24097225D-02
 -0.38934550D-02 -0.50956957D-02 -0.43649200D-02 -0.15015831D-02 -0.17628164D-02
 -0.87144975D-03  0.22988286D-02 -0.17319878D-07 -0.13483802D-07 -0.64025860D-08
 -0.82223016D-02 -0.64011931D-02 -0.30395129D-02 -0.60726689D-02 -0.47276697D-02
 -0.22448648D-02  0.10493236D-02  0.11050492D-07 -0.60104712D-03  0.12151898D-03
 -0.57904373D-03  0.11914275D-02 -0.61238375D-03 -0.70943364D-07  0.19070742D-06
  0.21094579D-02 -0.79056896D-04 -0.13409546D-03 -0.15266294D-03 -0.10070477D-03
 -0.79092274D-04 -0.13415547D-03 -0.15273126D-03 -0.10081167D-03  0.68505149D-04
  0.11619770D-03  0.13228697D-03  0.18270391D-03  0.68505149D-04  0.11619770D-03
  0.13228697D-03  0.18270391D-03
MO    6     MO 0.0        OCC NO =    2.0000000  ORB. ENERGY =   -2.124825
  0.00000000D+00  0.00000000D+00  0.00000000D+00  0.00000000D+00  0.00000000D+00
  0.00000000D+00  0.00000000D+00 -0.28374295D+01  0.29395235D+01  0.40688595D+00
  0.12896260D-03 -0.13360282D-03 -0.18493172D-04  0.00000000D+00  0.00000000D+00
  0.00000000D+00 -0.80848481D-03  0.82968591D-03  0.20231889D-07 -0.20762435D-07
  0.00000000D+00  0.00000000D+00 -0.23626371D-04  0.12227162D-08  0.00000000D+00
  0.00000000D+00  0.00000000D+00  0.00000000D+00  0.00000000D+00  0.00000000D+00
  0.00000000D+00  0.00000000D+00  0.00000000D+00  0.26334375D-02  0.39977742D-03
 -0.72723943D-06 -0.11040091D-06  0.00000000D+00  0.00000000D+00  0.00000000D+00
  0.00000000D+00 -0.71135333D-05  0.72800107D-07  0.11054555D-06 -0.88260280D-07
 -0.58925262D-07 -0.97363513D-04  0.87995665D-04  0.15643560D-06 -0.14138412D-06
  0.11362236D-06 -0.10269017D-06  0.73958864D-04 -0.42027589D-07 -0.41851370D-07
 -0.11054555D-06  0.88260280D-07  0.58925262D-07 -0.97363513D-04  0.87995665D-04
  0.15643560D-06 -0.14138412D-06 -0.11362236D-06  0.10269017D-06  0.73958864D-04
 -0.42027589D-07  0.41851370D-07 -0.76527055D-07 -0.14093097D-06 -0.22770605D-06
 -0.29801826D-06 -0.25527935D-06 -0.87819055D-07 -0.52807236D-07 -0.26105302D-07
  0.68864112D-07  0.10553623D-02  0.82161641D-03  0.39013253D-03  0.33386044D-06
  0.25991568D-06  0.12341716D-06 -0.31374825D-06 -0.24425802D-06 -0.11598235D-06
  0.13029375D-06  0.49565887D-03  0.59656310D-07 -0.74112590D-07  0.92246062D-07
 -0.38812317D-07 -0.53433745D-07  0.16454366D-02 -0.98892109D-03 -0.26151894D-06
 -0.75982510D-04 -0.12888072D-03 -0.14672614D-03 -0.19541203D-03  0.75940369D-04
  0.12880924D-03  0.14664477D-03  0.19541345D-03  0.76527055D-07  0.14093097D-06
  0.22770605D-06  0.29801826D-06  0.25527935D-06  0.87819055D-07  0.52807236D-07
  0.26105302D-07 -0.68864112D-07  0.10553623D-02  0.82161641D-03  0.39013253D-03
  0.33386044D-06  0.25991568D-06  0.12341716D-06  0.31374825D-06  0.24425802D-06
  0.11598235D-06 -0.13029375D-06  0.49565887D-03  0.59656310D-07  0.74112590D-07
 -0.92246062D-07  0.38812317D-07  0.53433745D-07 -0.16454366D-02 -0.98892109D-03
 -0.26151894D-06  0.75982510D-04  0.12888072D-03  0.14672614D-03  0.19541203D-03
 -0.75940369D-04 -0.12880924D-03 -0.14664477D-03 -0.19541345D-03 -0.12618969D-07
 -0.21404159D-07 -0.24367879D-07 -0.45861782D-07  0.12618969D-07  0.21404159D-07
  0.24367879D-07  0.45861782D-07
MO    7     MO 0.0        OCC NO =    2.0000000  ORB. ENERGY =   -0.954644
 -0.80430845D-02 -0.10783936D-01  0.12375934D-01  0.97471280D-01 -0.89784206D-01
 -0.78406740D-02  0.18891754D-02  0.00000000D+00  0.00000000D+00  0.00000000D+00
  0.00000000D+00  0.00000000D+00  0.00000000D+00  0.11441811D+00 -0.11853500D+00
 -0.16407499D-01  0.00000000D+00  0.00000000D+00  0.00000000D+00  0.00000000D+00
  0.50892047D-04 -0.52226602D-04  0.00000000D+00  0.00000000D+00  0.21175227D-03
 -0.36969880D-01 -0.56123311D-02  0.29541978D-01  0.44847146D-02  0.74279021D-02
  0.11276165D-02  0.43907243D-06  0.66654798D-07  0.00000000D+00  0.00000000D+00
  0.00000000D+00  0.00000000D+00 -0.32065328D-03  0.25540899D-03  0.65244290D-04
  0.57160251D-07  0.00000000D+00  0.00000000D+00 -0.92681575D-02  0.73997565D-02
  0.13856890D-02 -0.55716185D-06  0.50355443D-06 -0.25296467D-02  0.22862563D-02
 -0.54757478D-02  0.49488978D-02 -0.60306433D-07 -0.56979564D-03  0.95536437D-04
 -0.92681575D-02  0.73997565D-02  0.13856890D-02  0.55716185D-06 -0.50355443D-06
  0.25296467D-02 -0.22862563D-02 -0.54757478D-02  0.49488978D-02  0.60306433D-07
  0.56979564D-03  0.95536437D-04 -0.98326597D-01 -0.18107664D+00 -0.29257052D+00
 -0.38291192D+00 -0.32799838D+00 -0.11283524D+00 -0.15556087D+00 -0.76901646D-01
  0.20286161D+00  0.57401330D-05  0.44687852D-05  0.21219373D-05 -0.81562275D-01
 -0.63497533D-01 -0.30150875D-01  0.60927592D-01  0.47433103D-01  0.22522915D-01
  0.74286785D-01  0.53891171D-06 -0.36537985D-02  0.28212235D-02  0.24297981D-02
 -0.37088374D-02  0.12790393D-02  0.13509785D-05 -0.59479208D-06  0.63522529D-02
  0.20314679D-01  0.34457541D-01  0.39228693D-01 -0.10022294D-02  0.20315029D-01
  0.34458133D-01  0.39229367D-01 -0.10019253D-02 -0.98326597D-01 -0.18107664D+00
 -0.29257052D+00 -0.38291192D+00 -0.32799838D+00 -0.11283524D+00 -0.15556087D+00
 -0.76901646D-01  0.20286161D+00 -0.57401330D-05 -0.44687852D-05 -0.21219373D-05
  0.81562275D-01  0.63497533D-01  0.30150875D-01  0.60927592D-01  0.47433103D-01
  0.22522915D-01  0.74286785D-01 -0.53891171D-06  0.36537985D-02  0.28212235D-02
  0.24297981D-02 -0.37088374D-02  0.12790393D-02  0.13509785D-05  0.59479208D-06
 -0.63522529D-02  0.20314679D-01  0.34457541D-01  0.39228693D-01 -0.10022294D-02
  0.20315029D-01  0.34458133D-01  0.39229367D-01 -0.10019253D-02  0.19069339D-01
  0.32345209D-01  0.36823877D-01 -0.14229776D-02  0.19069339D-01  0.32345209D-01
  0.36823877D-01 -0.14229776D-02
MO    8     MO 0.0        OCC NO =    2.0000000  ORB. ENERGY =   -0.951013
  0.00000000D+00  0.00000000D+00  0.00000000D+00  0.00000000D+00  0.00000000D+00
  0.00000000D+00  0.00000000D+00  0.79437964D-06 -0.82296234D-06 -0.11391364D-06
 -0.14436870D+00  0.14956325D+00  0.20702398D-01  0.00000000D+00  0.00000000D+00
  0.00000000D+00 -0.37617212D-07  0.38603658D-07 -0.45054568D-03  0.46236045D-03
  0.00000000D+00  0.00000000D+00  0.42793676D-09 -0.27766265D-03  0.00000000D+00
  0.00000000D+00  0.00000000D+00  0.00000000D+00  0.00000000D+00  0.00000000D+00
  0.00000000D+00  0.00000000D+00  0.00000000D+00  0.15240789D-06  0.23136769D-07
 -0.10855933D+00 -0.16480197D-01  0.00000000D+00  0.00000000D+00  0.00000000D+00
  0.00000000D+00  0.74233415D-07  0.45637541D-03 -0.33663313D-02  0.26877005D-02
  0.17760560D-03 -0.58359477D-07  0.52744410D-07  0.16054478D-02 -0.14509794D-02
 -0.12319785D-02  0.11134435D-02 -0.31988145D-07 -0.35189949D-04  0.87075185D-03
  0.33663313D-02 -0.26877005D-02 -0.17760560D-03 -0.58359477D-07  0.52744410D-07
  0.16054478D-02 -0.14509794D-02  0.12319785D-02 -0.11134435D-02 -0.31988145D-07
 -0.35189949D-04 -0.87075185D-03 -0.98999506D-01 -0.18231586D+00 -0.29457276D+00
 -0.38553242D+00 -0.33024307D+00 -0.11360744D+00 -0.15569737D+00 -0.76969124D-01
  0.20303962D+00  0.62190252D-05  0.48416104D-05  0.22989679D-05 -0.88606014D-01
 -0.68981197D-01 -0.32754712D-01  0.63808233D-01  0.49675728D-01  0.23587793D-01
  0.76994162D-01  0.33382755D-06 -0.34773326D-02  0.16628674D-02  0.24668805D-02
 -0.39635996D-02  0.14967191D-02  0.13898038D-05 -0.52032910D-06  0.58182273D-02
  0.20454365D-01  0.34694475D-01  0.39498433D-01 -0.51068389D-03  0.20454595D-01
  0.34694865D-01  0.39498877D-01 -0.51018871D-03  0.98999506D-01  0.18231586D+00
  0.29457276D+00  0.38553242D+00  0.33024307D+00  0.11360744D+00  0.15569737D+00
  0.76969124D-01 -0.20303962D+00  0.62190252D-05  0.48416104D-05  0.22989679D-05
 -0.88606014D-01 -0.68981197D-01 -0.32754712D-01 -0.63808233D-01 -0.49675728D-01
 -0.23587793D-01 -0.76994162D-01  0.33382755D-06 -0.34773326D-02 -0.16628674D-02
 -0.24668805D-02  0.39635996D-02 -0.14967191D-02 -0.13898038D-05 -0.52032910D-06
  0.58182273D-02 -0.20454365D-01 -0.34694475D-01 -0.39498433D-01  0.51068389D-03
 -0.20454595D-01 -0.34694865D-01 -0.39498877D-01  0.51018871D-03 -0.19330231D-01
 -0.32787730D-01 -0.37327672D-01  0.23050115D-02  0.19330231D-01  0.32787730D-01
  0.37327672D-01 -0.23050115D-02
MO    9     MO 0.0        OCC NO =    2.0000000  ORB. ENERGY =   -0.735569
 -0.14458399D-01 -0.19385405D-01  0.22247209D-01  0.14160515D+00 -0.13043746D+00
 -0.11390841D-01  0.62908514D-02  0.00000000D+00  0.00000000D+00  0.00000000D+00
  0.00000000D+00  0.00000000D+00  0.00000000D+00 -0.12874550D+00  0.13337791D+00
  0.18462039D-01  0.00000000D+00  0.00000000D+00  0.00000000D+00  0.00000000D+00
  0.17452159D-02 -0.17909812D-02  0.00000000D+00  0.00000000D+00  0.50787579D-04
 -0.63019119D-01 -0.95668194D-02  0.50121460D-01  0.76088489D-02  0.12897659D-01
  0.19579705D-02  0.24248245D-04  0.36810825D-05  0.00000000D+00  0.00000000D+00
  0.00000000D+00  0.00000000D+00 -0.16175067D-02  0.14957087D-02  0.12179802D-03
  0.41493725D-06  0.00000000D+00  0.00000000D+00 -0.26177836D+00  0.20900552D+00
  0.49877710D-01 -0.28503866D-05  0.25761361D-05 -0.19907330D-01  0.17991943D-01
 -0.27653354D-01  0.24992682D-01  0.15507917D-06  0.10916720D-02  0.36650591D-02
 -0.26177836D+00  0.20900552D+00  0.49877710D-01  0.28503866D-05 -0.25761361D-05
  0.19907330D-01 -0.17991943D-01 -0.27653354D-01  0.24992682D-01 -0.15507917D-06
 -0.10916720D-02  0.36650591D-02  0.62299392D-02  0.11472954D-01  0.18537167D-01
  0.24261167D-01  0.20781864D-01  0.71492019D-02  0.86238657D-02  0.42632153D-02
 -0.11246089D-01 -0.60566586D-05 -0.47152055D-05 -0.22389463D-05  0.99345457D-02
  0.77342025D-02  0.36724729D-02 -0.67642554D-01 -0.52660808D-01 -0.25005214D-01
 -0.76928278D-02 -0.95423448D-07 -0.63692278D-03 -0.10253527D-02 -0.58514336D-03
  0.71267740D-03 -0.12753404D-03  0.27024129D-06  0.48938863D-06  0.18124335D-02
 -0.32030239D-02 -0.54329347D-02 -0.61852042D-02 -0.17600960D-02 -0.32036359D-02
 -0.54339729D-02 -0.61863861D-02 -0.17604652D-02  0.62299392D-02  0.11472954D-01
  0.18537167D-01  0.24261167D-01  0.20781864D-01  0.71492019D-02  0.86238657D-02
  0.42632153D-02 -0.11246089D-01  0.60566586D-05  0.47152055D-05  0.22389463D-05
 -0.99345457D-02 -0.77342025D-02 -0.36724729D-02 -0.67642554D-01 -0.52660808D-01
 -0.25005214D-01 -0.76928278D-02  0.95423448D-07  0.63692278D-03 -0.10253527D-02
 -0.58514336D-03  0.71267740D-03 -0.12753404D-03  0.27024129D-06 -0.48938863D-06
 -0.18124335D-02 -0.32030239D-02 -0.54329347D-02 -0.61852042D-02 -0.17600960D-02
 -0.32036359D-02 -0.54339729D-02 -0.61863861D-02 -0.17604652D-02  0.19753412D-02
  0.33505526D-02  0.38144857D-02  0.14856656D-03  0.19753412D-02  0.33505526D-02
  0.38144857D-02  0.14856656D-03
MO   10     MO 0.0        OCC NO =    2.0000000  ORB. ENERGY =   -0.730261
  0.00000000D+00  0.00000000D+00  0.00000000D+00  0.00000000D+00  0.00000000D+00
  0.00000000D+00  0.00000000D+00 -0.16709781D-04  0.17311018D-04  0.23961742D-05
 -0.15175204D+00  0.15721225D+00  0.21761165D-01  0.00000000D+00  0.00000000D+00
  0.00000000D+00  0.46564778D-06 -0.47785858D-06  0.22720714D-02 -0.23316525D-02
  0.00000000D+00  0.00000000D+00  0.62342748D-08  0.31729983D-04  0.00000000D+00
  0.00000000D+00  0.00000000D+00  0.00000000D+00  0.00000000D+00  0.00000000D+00
  0.00000000D+00  0.00000000D+00  0.00000000D+00  0.19824019D-04  0.30094487D-05
  0.20315739D+00  0.30840959D-01  0.00000000D+00  0.00000000D+00  0.00000000D+00
  0.00000000D+00  0.41660359D-06  0.62629459D-02 -0.26525893D+00  0.21178443D+00
  0.49339379D-01 -0.24608728D-05  0.22240995D-05 -0.16376260D-01  0.14800615D-01
 -0.28329016D-01  0.25603335D-01 -0.41521666D-08 -0.69623026D-03  0.24793683D-02
  0.26525893D+00 -0.21178443D+00 -0.49339379D-01 -0.24608728D-05  0.22240995D-05
 -0.16376260D-01  0.14800615D-01  0.28329016D-01 -0.25603335D-01 -0.41521666D-08
 -0.69623026D-03 -0.24793683D-02  0.22191822D-02  0.40868094D-02  0.66031706D-02
  0.86421308D-02  0.74027596D-02  0.25466351D-02  0.64427719D-02  0.31849897D-02
 -0.84017988D-02 -0.47796237D-05 -0.37210134D-05 -0.17668688D-05 -0.30432581D-01
 -0.23692251D-01 -0.11249919D-01 -0.29415563D-01 -0.22900485D-01 -0.10873961D-01
  0.24627592D-02 -0.42239192D-06  0.21256498D-02 -0.38430407D-02 -0.12614539D-02
  0.10416997D-02  0.21975420D-03  0.29286854D-06  0.50372277D-06  0.88598161D-04
 -0.14965214D-02 -0.25383835D-02 -0.28898599D-02  0.40902462D-03 -0.14968427D-02
 -0.25389285D-02 -0.28904804D-02  0.40881107D-03 -0.22191822D-02 -0.40868094D-02
 -0.66031706D-02 -0.86421308D-02 -0.74027596D-02 -0.25466351D-02 -0.64427719D-02
 -0.31849897D-02  0.84017988D-02 -0.47796237D-05 -0.37210134D-05 -0.17668688D-05
 -0.30432581D-01 -0.23692251D-01 -0.11249919D-01  0.29415563D-01  0.22900485D-01
  0.10873961D-01 -0.24627592D-02 -0.42239192D-06  0.21256498D-02  0.38430407D-02
  0.12614539D-02 -0.10416997D-02 -0.21975420D-03 -0.29286854D-06  0.50372277D-06
  0.88598161D-04  0.14965214D-02  0.25383835D-02  0.28898599D-02 -0.40902462D-03
  0.14968427D-02  0.25389285D-02  0.28904804D-02 -0.40881107D-03 -0.27689621D-02
 -0.46966837D-02 -0.53470084D-02 -0.20275217D-02  0.27689621D-02  0.46966837D-02
  0.53470084D-02  0.20275217D-02
MO   11     MO 0.0        OCC NO =    2.0000000  ORB. ENERGY =   -0.565766
  0.00000000D+00  0.00000000D+00  0.00000000D+00  0.00000000D+00  0.00000000D+00
  0.00000000D+00  0.00000000D+00  0.78183312D-01 -0.80996437D-01 -0.11211447D-01
 -0.29810050D-04  0.30882650D-04  0.42747460D-05  0.00000000D+00  0.00000000D+00
  0.00000000D+00 -0.72645793D-03  0.74550802D-03  0.30670427D-06 -0.31474705D-06
  0.00000000D+00  0.00000000D+00  0.15441253D-03 -0.15717234D-08  0.00000000D+00