 Generated by Multiwfn
GAUSSIAN             21 MOL ORBITALS    132 PRIMITIVES        6 NUCLEI
  O    1    (CENTRE  1)  -4.98104774 -0.00000321  0.00000009  CHARGE =  8.0
  H    2    (CENTRE  2)  -3.82638356 -1.42542934  0.00000009  CHARGE =  1.0
  H    3    (CENTRE  3)  -3.82641746  1.42545118  0.00000387  CHARGE =  1.0
  O    4    (CENTRE  4)   4.98104793  0.00000207 -0.00000180  CHARGE =  8.0
  H    5    (CENTRE  5)   3.82638942  1.42543387  0.00000198  CHARGE =  1.0
  H    6    (CENTRE  6)   3.82641009 -1.42544664  0.00000765  CHARGE =  1.0
CENTRE ASSIGNMENTS    1  1  1  1  1  1  1  1  1  1  1  1  1  1  1  1  1  1  1  1
CENTRE ASSIGNMENTS    1  1  1  1  1  1  1  1  1  1  1  1  1  1  1  1  1  1  1  1
CENTRE ASSIGNMENTS    1  1  2  2  2  2  2  2  2  2  2  2  2  2  3  3  3  3  3  3
CENTRE ASSIGNMENTS    3  3  3  3  3  3  4  4  4  4  4  4  4  4  4  4  4  4  4  4
CENTRE ASSIGNMENTS    4  4  4  4  4  4  4  4  4  4  4  4  4  4  4  4  4  4  4  4
CENTRE ASSIGNMENTS    4  4  4  4  4  4  4  4  5  5  5  5  5  5  5  5  5  5  5  5
CENTRE ASSIGNMENTS    6  6  6  6  6  6  6  6  6  6  6  6
TYPE ASSIGNMENTS      1  1  1  1  1  1  1  1  1  2  2  2  3  3  3  4  4  4  1  2
TYPE ASSIGNMENTS      3  4  1  2  3  4  1  2  3  4  5  6  7  8  9 10  5  6  7  8
TYPE ASSIGNMENTS      9 10  1  1  1  1  1  1  2  3  4  2  3  4  1  1  1  1  1  1
TYPE ASSIGNMENTS      2  3  4  2  3  4  1  1  1  1  1  1  1  1  1  2  2  2  3  3
TYPE ASSIGNMENTS      3  4  4  4  1  2  3  4  1  2  3  4  1  2  3  4  5  6  7  8
TYPE ASSIGNMENTS      9 10  5  6  7  8  9 10  1  1  1  1  1  1  2  3  4  2  3  4
TYPE ASSIGNMENTS      1  1  1  1  1  1  2  3  4  2  3  4
EXPONENTS  0.8588500D+04 0.1297230D+04 0.2992960D+03 0.8737710D+02 0.2567890D+02
EXPONENTS  0.3740040D+01 0.4211750D+02 0.9628370D+01 0.2853320D+01 0.4211750D+02
EXPONENTS  0.9628370D+01 0.2853320D+01 0.4211750D+02 0.9628370D+01 0.2853320D+01
EXPONENTS  0.4211750D+02 0.9628370D+01 0.2853320D+01 0.9056610D+00 0.9056610D+00
EXPONENTS  0.9056610D+00 0.9056610D+00 0.2556110D+00 0.2556110D+00 0.2556110D+00
EXPONENTS  0.2556110D+00 0.8450000D-01 0.8450000D-01 0.8450000D-01 0.8450000D-01
EXPONENTS  0.2584000D+01 0.2584000D+01 0.2584000D+01 0.2584000D+01 0.2584000D+01
EXPONENTS  0.2584000D+01 0.6460000D+00 0.6460000D+00 0.6460000D+00 0.6460000D+00
EXPONENTS  0.6460000D+00 0.6460000D+00 0.3386500D+02 0.5094790D+01 0.1158790D+01
EXPONENTS  0.3258400D+00 0.1027410D+00 0.3600000D-01 0.1500000D+01 0.1500000D+01
EXPONENTS  0.1500000D+01 0.3750000D+00 0.3750000D+00 0.3750000D+00 0.3386500D+02
EXPONENTS  0.5094790D+01 0.1158790D+01 0.3258400D+00 0.1027410D+00 0.3600000D-01
EXPONENTS  0.1500000D+01 0.1500000D+01 0.1500000D+01 0.3750000D+00 0.3750000D+00
EXPONENTS  0.3750000D+00 0.8588500D+04 0.1297230D+04 0.2992960D+03 0.8737710D+02
EXPONENTS  0.2567890D+02 0.3740040D+01 0.4211750D+02 0.9628370D+01 0.2853320D+01
EXPONENTS  0.4211750D+02 0.9628370D+01 0.2853320D+01 0.4211750D+02 0.9628370D+01
EXPONENTS  0.2853320D+01 0.4211750D+02 0.9628370D+01 0.2853320D+01 0.9056610D+00
EXPONENTS  0.9056610D+00 0.9056610D+00 0.9056610D+00 0.2556110D+00 0.2556110D+00
EXPONENTS  0.2556110D+00 0.2556110D+00 0.8450000D-01 0.8450000D-01 0.8450000D-01
EXPONENTS  0.8450000D-01 0.2584000D+01 0.2584000D+01 0.2584000D+01 0.2584000D+01
EXPONENTS  0.2584000D+01 0.2584000D+01 0.6460000D+00 0.6460000D+00 0.6460000D+00
EXPONENTS  0.6460000D+00 0.6460000D+00 0.6460000D+00 0.3386500D+02 0.5094790D+01
EXPONENTS  0.1158790D+01 0.3258400D+00 0.1027410D+00 0.3600000D-01 0.1500000D+01
EXPONENTS  0.1500000D+01 0.1500000D+01 0.3750000D+00 0.3750000D+00 0.3750000D+00
EXPONENTS  0.3386500D+02 0.5094790D+01 0.1158790D+01 0.3258400D+00 0.1027410D+00
EXPONENTS  0.3600000D-01 0.1500000D+01 0.1500000D+01 0.1500000D+01 0.3750000D+00
EXPONENTS  0.3750000D+00 0.3750000D+00
MO    1     MO 0.0        OCC NO =    1.0000000  ORB. ENERGY =  -20.411657
  0.34545917D+00  0.63535275D+00  0.10399364D+01  0.14014461D+01  0.13863287D+01
  0.15430234D+00  0.32903237D+00  0.87951850D+00 -0.12562144D-02  0.44762385D-02
  0.45959584D-02  0.34733664D-02  0.56467713D-07  0.57977979D-07  0.43816490D-07
  0.75336093D-08  0.77351006D-08  0.58457531D-08  0.19246420D-02 -0.41767202D-03
 -0.55266274D-08 -0.69181859D-09 -0.24969095D-03 -0.47115791D-04 -0.41041014D-09
 -0.81875637D-10  0.55618297D-04  0.54195967D-05 -0.19466268D-10  0.10393220D-10
  0.17211468D-03 -0.49290178D-04 -0.12282450D-03  0.28113407D-08  0.95183407D-09
  0.19584278D-09 -0.24340959D-04 -0.83774440D-04  0.10811540D-03  0.13724752D-08
 -0.43678956D-09 -0.50651112D-09  0.24476646D-04  0.44152377D-04  0.65092242D-04
  0.12412515D-03 -0.18695991D-04 -0.17578781D-05 -0.68722370D-04  0.11013706D-03
  0.33451483D-10 -0.36119767D-04  0.49417848D-04  0.85736498D-11  0.24476653D-04
  0.44152391D-04  0.65092262D-04  0.12412489D-03 -0.18695630D-04 -0.17577973D-05
 -0.68719788D-04 -0.11013852D-03 -0.25403831D-09 -0.36118581D-04 -0.49418869D-04
 -0.12515019D-09  0.56770132D+00  0.10440904D+01  0.17089523D+01  0.23030300D+01
  0.22781872D+01  0.25356873D+00  0.54070601D+00  0.14453318D+01 -0.20643644D-02
 -0.73604936D-02 -0.75573548D-02 -0.57114229D-02 -0.57245627D-07 -0.58776699D-07
 -0.44420117D-07  0.44314445D-07  0.45499664D-07  0.34386082D-07  0.31661904D-02
  0.69070290D-03  0.56468795D-08 -0.41973286D-08 -0.41581950D-03  0.75102380D-04
  0.42016103D-09 -0.40614281D-09  0.10027529D-03 -0.90724555D-05  0.11095977D-10
  0.51299542D-10  0.27949615D-03 -0.79243829D-04 -0.20025232D-03  0.30129816D-08
 -0.47829354D-08 -0.48887971D-09 -0.38727961D-04 -0.13874623D-03  0.17747419D-03
  0.13161015D-08  0.24924728D-08  0.12563046D-08  0.40260060D-04  0.72623404D-04
  0.10706604D-03  0.20432302D-03 -0.33578141D-04 -0.44734603D-05  0.11249950D-03
 -0.18272951D-03 -0.26502181D-09  0.60620518D-04 -0.80509704D-04 -0.18640921D-09
  0.40260089D-04  0.72623457D-04  0.10706612D-03  0.20432288D-03 -0.33577842D-04
 -0.44733456D-05  0.11249697D-03  0.18273113D-03 -0.98947745D-09  0.60619355D-04
  0.80510703D-04 -0.50796944D-09
MO    2     MO 0.0        OCC NO =    1.0000000  ORB. ENERGY =  -20.411657
  0.56770135D+00  0.10440905D+01  0.17089524D+01  0.23030301D+01  0.22781873D+01
  0.25356875D+00  0.54070517D+00  0.14453296D+01 -0.20643612D-02  0.73658842D-02
  0.75628896D-02  0.57156058D-02  0.92862013D-07  0.95345668D-07  0.72056883D-07
  0.12429886D-07  0.12762331D-07  0.96450510D-08  0.31701675D-02 -0.69579813D-03
 -0.91191495D-08 -0.11795854D-08 -0.42228450D-03 -0.72368913D-04 -0.74342280D-09
 -0.11335084D-09  0.11071515D-03  0.92680404D-05  0.53195367D-10  0.15217827D-10
  0.27556227D-03 -0.77175436D-04 -0.19838683D-03  0.45101906D-08  0.15178928D-08
  0.33621615D-09 -0.37231481D-04 -0.14001394D-03  0.17724542D-03  0.22124830D-08
 -0.70376558D-09 -0.84262267D-09  0.40303707D-04  0.72702137D-04  0.10718211D-03
  0.20472927D-03 -0.36935530D-04 -0.63373201D-05 -0.11199104D-03  0.18477313D-03
  0.64279222D-10 -0.62107881D-04  0.79686057D-04  0.38166803D-11  0.40303681D-04
  0.72702090D-04  0.10718204D-03  0.20472926D-03 -0.36935459D-04 -0.63371150D-05
 -0.11198682D-03 -0.18477603D-03 -0.42941869D-09 -0.62105974D-04 -0.79687546D-04
 -0.20521711D-09 -0.34545923D+00 -0.63535286D+00 -0.10399365D+01 -0.14014464D+01
 -0.13863290D+01 -0.15430237D+00 -0.32903098D+00 -0.87951479D+00  0.12562091D-02
  0.44850979D-02  0.46050548D-02  0.34802409D-02  0.34852842D-07  0.35785004D-07
  0.27044290D-07 -0.26957936D-07 -0.27678944D-07 -0.20918186D-07 -0.19311762D-02
 -0.42604544D-03 -0.34382176D-08  0.25507205D-08  0.26031446D-03 -0.42623864D-04
 -0.40434845D-09  0.25748081D-09 -0.72774199D-04  0.57410150D-05  0.92114947D-10
 -0.42062596D-10 -0.16565103D-03  0.45894508D-04  0.11975652D-03 -0.19794043D-08
  0.28493606D-08  0.30654556D-09  0.21882096D-04  0.85857472D-04 -0.10773957D-03
 -0.64798841D-09 -0.15030120D-08 -0.77228701D-09 -0.24548245D-04 -0.44281531D-04
 -0.65282649D-04 -0.12479240D-03  0.24213099D-04  0.48206686D-05 -0.67885211D-04
  0.11349664D-03  0.16620907D-09 -0.38563239D-04  0.48064913D-04  0.11317393D-09
 -0.24548234D-04 -0.44281512D-04 -0.65282621D-04 -0.12479276D-03  0.24213401D-04
  0.48206761D-05 -0.67883740D-04 -0.11349797D-03  0.62304239D-09 -0.38562608D-04
 -0.48065444D-04  0.30109968D-09
MO    3     MO 0.0        OCC NO =    1.0000000  ORB. ENERGY =   -1.194301
 -0.97536581D-01 -0.17938483D+00 -0.29361455D+00 -0.39568284D+00 -0.39141461D+00
 -0.43565563D-01 -0.18169422D+00 -0.48567693D+00  0.69369134D-03  0.14569412D+00
  0.14959080D+00  0.11305230D+00  0.16083101D-05  0.16513254D-05  0.12479787D-05
  0.23979667D-06  0.24621019D-06  0.18607179D-06  0.25630964D+00  0.59002614D-01
  0.67187930D-06  0.96730654D-07  0.76177179D-01  0.62747121D-02  0.67201890D-07
  0.10810652D-07 -0.36908790D-02 -0.58880415D-03 -0.99058123D-09 -0.97028804D-09
  0.75119053D-02  0.15806899D-01 -0.23318805D-01 -0.24248650D-06  0.10089943D-06
  0.10382440D-06  0.24946841D-02  0.22294306D-02 -0.47241147D-02 -0.70184411D-09
  0.24074721D-07  0.18440047D-07  0.16354569D-01  0.29501309D-01  0.43492705D-01
  0.12021253D-01  0.14481390D-02  0.31686265D-03 -0.14998424D-01  0.19738198D-01
  0.15864463D-08 -0.15911455D-02  0.18037058D-02  0.16315778D-09  0.16354556D-01
  0.29501287D-01  0.43492673D-01  0.12021275D-01  0.14481195D-02  0.31685349D-03
 -0.14997942D-01 -0.19738554D-01 -0.50794000D-07 -0.15911015D-02 -0.18037394D-02
 -0.45923132D-08 -0.96982979D-01 -0.17836667D+00 -0.29194804D+00 -0.39343701D+00
 -0.38919300D+00 -0.43318292D-01 -0.18066303D+00 -0.48292052D+00  0.68975436D-03
 -0.14486778D+00 -0.14874236D+00 -0.11241109D+00 -0.10166322D-05 -0.10438226D-05
 -0.78886233D-06  0.82410671D-06  0.84614798D-06  0.63947097D-06  0.25485561D+00
 -0.58666769D-01 -0.41799656D-06  0.33464728D-06  0.75742643D-01 -0.62397499D-02
 -0.38711378D-07  0.37050868D-07 -0.36662624D-02  0.58546379D-03 -0.73912137D-09
 -0.30302655D-08  0.74686492D-02  0.15717744D-01 -0.23186393D-01 -0.12779037D-06
 -0.34760884D-06 -0.15481414D-06  0.24809710D-02  0.22162989D-02 -0.46972699D-02
 -0.34469753D-08 -0.83594447D-07 -0.27499338D-07  0.16261768D-01  0.29333910D-01
  0.43245915D-01  0.11953284D-01  0.14386765D-02  0.31424943D-03  0.14912710D-01
 -0.19626481D-01 -0.46543517D-07  0.15829048D-02 -0.17933832D-02 -0.36571377D-08
  0.16261767D-01  0.29333908D-01  0.43245913D-01  0.11953309D-01  0.14386608D-02
  0.31424128D-03  0.14912425D-01  0.19626701D-01 -0.12464736D-06  0.15828804D-02
  0.17934050D-02 -0.10762254D-07
MO    4     MO 0.0        OCC NO =    1.0000000  ORB. ENERGY =   -1.194274
  0.96994575D-01  0.17838800D+00  0.29198295D+00  0.39348405D+00  0.38923954D+00
  0.43323471D-01  0.18067111D+00  0.48294211D+00 -0.68978520D-03 -0.14476877D+00
 -0.14864071D+00 -0.11233427D+00 -0.16002825D-05 -0.16430831D-05 -0.12417496D-05
 -0.23794703D-06 -0.24431108D-06 -0.18463655D-06 -0.25475497D+00 -0.58841431D-01
 -0.66708203D-06 -0.96860070D-07 -0.76139179D-01 -0.61264950D-02 -0.72466108D-07
 -0.10402652D-07  0.43155851D-02  0.58549076D-03  0.62987479D-08  0.95586261D-09
 -0.75825802D-02 -0.15613148D-01  0.23195728D-01  0.24312397D-06 -0.10077405D-06
 -0.10288377D-06 -0.24035142D-02 -0.23007552D-02  0.47042694D-02 -0.28538774D-08
 -0.23735564D-07 -0.18645722D-07 -0.16256559D-01 -0.29324514D-01 -0.43232063D-01
 -0.11906604D-01 -0.16587307D-02 -0.45818876D-03  0.15001392D-01 -0.19582751D-01
 -0.14957815D-08  0.14414035D-02 -0.18089245D-02 -0.33846233D-09 -0.16256548D-01
 -0.29324494D-01 -0.43232034D-01 -0.11906607D-01 -0.16587382D-02 -0.45817937D-03
  0.15000907D-01  0.19583094D-01  0.50335962D-07  0.14413602D-02  0.18089623D-02
  0.45480979D-08 -0.97548114D-01 -0.17940605D+00 -0.29364927D+00 -0.39572963D+00
 -0.39146089D+00 -0.43570714D-01 -0.18170226D+00 -0.48569842D+00  0.69372204D-03
 -0.14559555D+00 -0.14948960D+00 -0.11297582D+00 -0.10233687D-05 -0.10507394D-05
 -0.79408964D-06  0.82931605D-06  0.85149664D-06  0.64351318D-06  0.25620958D+00
 -0.59176272D-01 -0.41909762D-06  0.33653482D-06  0.76571519D-01 -0.61621145D-02
 -0.47023975D-07  0.38081292D-07 -0.43365241D-02  0.58883365D-03  0.54428239D-08
 -0.37449486D-08  0.76252298D-02  0.15702816D-01 -0.23328046D-01 -0.13399565D-06
 -0.35068803D-06 -0.15521792D-06  0.24176799D-02  0.23134047D-02 -0.47310846D-02
  0.25673212D-08 -0.83704272D-07 -0.28089681D-07  0.16349360D-01  0.29491912D-01
  0.43478852D-01  0.11974818D-01  0.16669463D-02  0.45998090D-03  0.15086415D-01
 -0.19694824D-01 -0.46666404D-07  0.14504255D-02 -0.18191635D-02 -0.36597052D-08
  0.16349360D-01  0.29491913D-01  0.43478853D-01  0.11974822D-01  0.16669569D-02
  0.45997906D-03  0.15086123D-01  0.19695035D-01 -0.12490523D-06  0.14503989D-02
  0.18191871D-02 -0.10984956D-07
MO    5     MO 0.0        OCC NO =    1.0000000  ORB. ENERGY =   -0.549934
 -0.55751775D-08 -0.10253612D-07 -0.16782967D-07 -0.22617177D-07 -0.22373205D-07
 -0.24902016D-08 -0.10691710D-07 -0.28579428D-07  0.40819937D-10 -0.11357593D-04
 -0.11661359D-04 -0.88129981D-05  0.90427724D+00  0.92846271D+00  0.70167980D+00
  0.11973604D-05  0.12293846D-05  0.92909963D-06  0.73145069D-08 -0.39685117D-05
  0.31701692D+00  0.41975405D-06  0.30272016D-07 -0.52263953D-06  0.42353536D-01
  0.56118930D-07 -0.32168093D-08 -0.57562996D-08  0.20609706D-03  0.24593024D-09
 -0.17077318D-05  0.16889918D-05  0.18739983D-07  0.14070051D+00  0.18637420D-06
  0.23213729D-06 -0.28171074D-06  0.28582026D-06 -0.41095233D-08  0.23166008D-01
  0.30741293D-07  0.38361271D-07 -0.25588499D-01 -0.46158002D-01 -0.68049062D-01
 -0.42079999D-01 -0.61880220D-02 -0.65500546D-03  0.22304664D-01 -0.13872210D-01
  0.18255295D-07  0.62489833D-02 -0.40222518D-02  0.37549812D-08  0.25588491D-01
  0.46157987D-01  0.68049039D-01  0.42080002D-01  0.61880412D-02  0.65500451D-03
 -0.22304317D-01 -0.13872733D-01 -0.55097563D-07 -0.62488853D-02 -0.40223771D-02
 -0.14569040D-07 -0.92498383D-08 -0.17011881D-07 -0.27844805D-07 -0.37524406D-07
 -0.37119630D-07 -0.41315208D-08 -0.17725867D-07 -0.47382050D-07  0.67675683D-10
 -0.67096401D-05 -0.68890937D-05 -0.52063888D-05  0.90373537D+00  0.92790636D+00
  0.70125934D+00 -0.17956875D-05 -0.18437143D-05 -0.13933754D-05  0.31574651D-07
 -0.23507652D-05  0.31682705D+00 -0.62951283D-06  0.64153085D-08 -0.31063408D-06
  0.42327987D-01 -0.84142249D-07  0.43388894D-08 -0.35762480D-08  0.20607448D-03
 -0.38253002D-09  0.10311753D-05 -0.10297464D-05 -0.14288985D-08 -0.14061636D+00
  0.27946800D-06  0.81295861D-06  0.16934520D-06 -0.17196613D-06  0.26209389D-08
 -0.23152014D-01  0.46068649D-07  0.13562876D-06  0.25573163D-01  0.46130338D-01
  0.68008278D-01  0.42054926D-01  0.61842099D-02  0.65450514D-03  0.22291237D-01
 -0.13864015D-01 -0.10043221D-06  0.62452565D-02 -0.40198743D-02 -0.23302635D-07
 -0.25573165D-01 -0.46130342D-01 -0.68008283D-01 -0.42054946D-01 -0.61842239D-02
 -0.65450515D-03 -0.22291027D-01 -0.13864334D-01  0.15563252D-06 -0.62451977D-02
 -0.40199495D-02  0.39439552D-07
MO    6     MO 0.0        OCC NO =    1.0000000  ORB. ENERGY =   -0.549454
  0.11269038D-07  0.20725501D-07  0.33923206D-07  0.45715823D-07  0.45222686D-07
  0.50334140D-08  0.21771033D-07  0.58194963D-07 -0.83119744D-10  0.11450819D-04
  0.11757078D-04  0.88853374D-05 -0.90486628D+00 -0.92906752D+00 -0.70213688D+00
 -0.12026555D-05 -0.12348213D-05 -0.93320839D-06 -0.27215232D-07  0.40011234D-05
 -0.31711153D+00 -0.42125061D-06 -0.21324745D-07  0.53812773D-06 -0.42714957D-01
 -0.56957090D-07 -0.14815140D-07  0.18254740D-09 -0.38041786D-04  0.59825269D-11
  0.17071783D-05 -0.16878162D-05 -0.19362154D-07 -0.14046323D+00 -0.18631732D-06
 -0.23169585D-06  0.28645061D-06 -0.28752478D-06  0.10741675D-08 -0.23409884D-01
 -0.31118037D-07 -0.38832462D-07  0.25586453D-01  0.46154310D-01  0.68043619D-01
  0.41848673D-01  0.63833514D-02  0.83662776D-03 -0.22304040D-01  0.13820229D-01
 -0.18348127D-07 -0.61903470D-02  0.40033390D-02 -0.37843938D-08 -0.25586441D-01
 -0.46154290D-01 -0.68043588D-01 -0.41848684D-01 -0.63833527D-02 -0.83662447D-03
  0.22303697D-01  0.13820749D-01  0.54818078D-07  0.61902571D-02  0.40034715D-02
  0.14456804D-07 -0.26476174D-09 -0.48693773D-09 -0.79701276D-09 -0.10740758D-08
 -0.10624897D-08 -0.11825814D-09 -0.42180354D-09 -0.11275001D-08  0.16104060D-11
 -0.68480785D-05 -0.70312348D-05 -0.53138111D-05  0.90540735D+00  0.92962305D+00
  0.70255672D+00 -0.18035273D-05 -0.18517638D-05 -0.13994587D-05  0.24895895D-08
 -0.23979290D-05  0.31730124D+00 -0.63182704D-06  0.10196388D-07 -0.32800511D-06
  0.42740328D-01 -0.85321403D-07 -0.88444049D-08  0.69155413D-09  0.38165887D-04
 -0.19463035D-10  0.10332528D-05 -0.10300682D-05 -0.31845331D-08 -0.14054739D+00
  0.27958846D-06  0.81232352D-06  0.17430134D-06 -0.17348405D-06 -0.81728285D-09
 -0.23423768D-01  0.46662507D-07  0.13751315D-06  0.25601750D-01  0.46181904D-01
  0.68084300D-01  0.41873842D-01  0.63870599D-02  0.83701983D-03  0.22317314D-01
 -0.13828611D-01 -0.10033930D-06  0.61940663D-02 -0.40057644D-02 -0.23319404D-07
 -0.25601747D-01 -0.46181900D-01 -0.68084293D-01 -0.41873865D-01 -0.63870629D-02
 -0.83701765D-03 -0.22317110D-01 -0.13828927D-01  0.15516422D-06 -0.61940153D-02
 -0.40058491D-02  0.39308880D-07
MO    7     MO 0.0        OCC NO =    1.0000000  ORB. ENERGY =   -0.437052
 -0.30838156D-01 -0.56716130D-01 -0.92832157D-01 -0.12510311D+00 -0.12375362D+00
 -0.13774131D-01 -0.58272219D-01 -0.15576430D+00  0.22247782D-03 -0.99263357D+00
 -0.10191822D+01 -0.77024048D+00 -0.12264487D-04 -0.12592509D-04 -0.95167087D-05
 -0.16154870D-05 -0.16586943D-05 -0.12535477D-05  0.86350185D-01 -0.34394077D+00
 -0.42674935D-05 -0.56063960D-06  0.62960499D-01 -0.49761233D-01 -0.60274819D-06
 -0.79689912D-07  0.66035004D-02 -0.24144471D-02 -0.36966130D-07 -0.42048672D-08
 -0.30985209D-01 -0.63246520D-02  0.37309861D-01 -0.67533708D-06 -0.22484071D-06
 -0.11559936D-06 -0.10484738D-01  0.66201075D-02  0.38646308D-02 -0.42295016D-06
 -0.47554139D-07  0.72599930D-08 -0.15874099D-01 -0.28634609D-01 -0.42214961D-01
 -0.36025370D-01 -0.49407759D-02 -0.17310765D-03 -0.35834649D-03 -0.16735680D-01
 -0.22247289D-07  0.13092438D-02 -0.10028194D-01 -0.12278829D-07 -0.15874124D-01
 -0.28634655D-01 -0.42215030D-01 -0.36025465D-01 -0.49407578D-02 -0.17308658D-03
 -0.35871972D-03  0.16735685D-01  0.22066905D-07  0.13090068D-02  0.10028227D-01
  0.14412368D-07 -0.30838295D-01 -0.56716387D-01 -0.92832577D-01 -0.12510367D+00
 -0.12375418D+00 -0.13774193D-01 -0.58272482D-01 -0.15576500D+00  0.22247882D-03
  0.99263778D+00  0.10191865D+01  0.77024374D+00  0.73210202D-05  0.75168256D-05
  0.56807932D-05 -0.55560989D-05 -0.57047003D-05 -0.43112911D-05  0.86350580D-01
  0.34394224D+00  0.25432657D-05 -0.19234281D-05  0.62960736D-01  0.49761456D-01
  0.34866561D-06 -0.27596154D-06  0.66035385D-02  0.24144528D-02  0.26199224D-07
 -0.12945014D-07 -0.30985355D-01 -0.63246625D-02  0.37310017D-01 -0.41246651D-06
  0.78389847D-06  0.17345009D-06 -0.10484785D-01  0.66201275D-02  0.38646571D-02
 -0.24742646D-06  0.16744865D-06 -0.10912331D-07 -0.15874179D-01 -0.28634754D-01
 -0.42215175D-01 -0.36025532D-01 -0.49408092D-02 -0.17310885D-03  0.35840554D-03
  0.16735748D-01 -0.32026941D-07 -0.13092051D-02  0.10028235D-01 -0.15581774D-07
 -0.15874190D-01 -0.28634775D-01 -0.42215206D-01 -0.36025599D-01 -0.49407895D-02
 -0.17308284D-03  0.35863571D-03 -0.16735753D-01  0.34474307D-07 -0.13090630D-02
 -0.10028259D-01  0.24404112D-07
MO    8     MO 0.0        OCC NO =    1.0000000  ORB. ENERGY =   -0.435776
  0.30596393D-01  0.56271492D-01  0.92104378D-01  0.12412233D+00  0.12278342D+00
  0.13666145D-01  0.57805646D-01  0.15451712D+00 -0.22069648D-03  0.99845137D+00
  0.10251556D+01  0.77475484D+00  0.12087981D-04  0.12411282D-04  0.93797477D-05
  0.16303085D-05  0.16739121D-05  0.12650485D-05 -0.85681100D-01  0.34550320D+00
  0.41967556D-05  0.56406049D-06 -0.61412524D-01  0.51690410D-01  0.63166837D-06
  0.83899031D-07 -0.56033435D-02  0.20938436D-02  0.12252325D-07  0.33883828D-08
  0.30771878D-01  0.61750631D-02 -0.36946941D-01  0.62433015D-06  0.22304051D-06
  0.11431555D-06  0.10794586D-01 -0.64758525D-02 -0.43187330D-02  0.43872096D-06
  0.50391505D-07 -0.57129851D-08  0.15914536D-01  0.28707552D-01  0.42322499D-01
  0.34912032D-01  0.49508898D-02 -0.35710675D-03  0.18212709D-03  0.17003087D-01
  0.22449626D-07 -0.10799126D-02  0.93838265D-02  0.11707674D-07  0.15914552D-01
  0.28707582D-01  0.42322543D-01  0.34912061D-01  0.49509592D-02 -0.35708385D-03
  0.18253407D-03 -0.17003071D-01 -0.22637974D-07 -0.10796833D-02 -0.93838530D-02
 -0.13176083D-07 -0.30596264D-01 -0.56271254D-01 -0.92103990D-01 -0.12412181D+00
 -0.12278290D+00 -0.13666088D-01 -0.57805401D-01 -0.15451647D+00  0.22069555D-03
  0.99844688D+00  0.10251510D+01  0.77475135D+00  0.71958348D-05  0.73882920D-05
  0.55836548D-05 -0.56537641D-05 -0.58049777D-05 -0.43870750D-05  0.85680742D-01
  0.34550165D+00  0.24930040D-05 -0.19598817D-05  0.61412223D-01  0.51690187D-01
  0.37174908D-06 -0.28726785D-06  0.56033230D-02  0.20938308D-02  0.71284210D-08
 -0.13120594D-07 -0.30771754D-01 -0.61750194D-02  0.36946774D-01 -0.37389704D-06
  0.78133625D-06  0.17148518D-06 -0.10794539D-01  0.64758161D-02  0.43187228D-02
 -0.26142022D-06  0.17695033D-06 -0.85718923D-08 -0.15914476D-01 -0.28707444D-01
 -0.42322339D-01 -0.34911880D-01 -0.49508886D-02  0.35710202D-03  0.18218879D-03
  0.17003005D-01 -0.32693500D-07 -0.10798669D-02  0.93837838D-02 -0.17242316D-07
 -0.15914481D-01 -0.28707453D-01 -0.42322353D-01 -0.34911895D-01 -0.49509318D-02
  0.35708939D-03  0.18244194D-03 -0.17002995D-01  0.34934970D-07 -0.10797258D-02
 -0.93838009D-02  0.20081548D-07
MO    9     MO 0.0        OCC NO =    1.0000000  ORB. ENERGY =   -0.353149
  0.15115462D-08  0.27799668D-08  0.45502102D-08  0.61319854D-08  0.60658396D-08
  0.67514525D-09  0.28892829D-08  0.77231848D-08 -0.11031009D-10 -0.17853568D-05
 -0.18331074D-05 -0.13853593D-05 -0.14968495D-05 -0.15368837D-05 -0.11614901D-05
  0.11256133D+01  0.11557185D+01  0.87342695D+00 -0.55257032D-08 -0.62888370D-06
 -0.52606417D-06  0.39506658D+00  0.61769659D-08 -0.10820608D-06 -0.94412281D-07
  0.73780407D-01  0.66198344D-08 -0.77845054D-08 -0.76883295D-08  0.41818359D-02
 -0.78290950D-07 -0.16861078D-08  0.79977058D-07 -0.66219355D-07  0.47375271D-01
  0.56201430D-06 -0.29952821D-07  0.43954617D-09  0.29513274D-07 -0.23035524D-07
  0.19248653D-01  0.23762838D-06  0.87302382D-09  0.15748104D-08  0.23216857D-08
 -0.39036921D-08 -0.22537314D-08 -0.57237303D-08 -0.31972471D-07 -0.23352461D-07
  0.18907090D-01 -0.11203464D-07 -0.12691243D-07  0.74184675D-02  0.65338016D-09
  0.11786046D-08  0.17375738D-08 -0.93812598D-08  0.16647018D-08  0.13418749D-08
 -0.30932804D-07 -0.25977436D-07  0.18907068D-01 -0.91691260D-08 -0.48799462D-08
  0.74184857D-02  0.69330190D-08  0.12750893D-07  0.20870480D-07  0.28125619D-07
  0.27822227D-07  0.30966933D-08  0.13715765D-07  0.36662865D-07 -0.52365494D-10
  0.63886454D-05  0.65595139D-05  0.49573110D-05  0.22426133D-05  0.23025934D-05
  0.17401704D-05  0.11254210D+01  0.11555211D+01  0.87327777D+00 -0.28595617D-07
  0.22418085D-05  0.78781167D-06  0.39499916D+00  0.79737604D-08  0.40834932D-06
  0.14329453D-06  0.73767759D-01  0.10074544D-07  0.21733151D-07  0.10459033D-07
  0.41811428D-02 -0.27335790D-06 -0.35465662D-08  0.27690447D-06 -0.97608581D-07
 -0.47367170D-01 -0.35220394D-06 -0.10997481D-06 -0.10536027D-08  0.11102841D-06
 -0.35788877D-07 -0.19245361D-01 -0.14593679D-06  0.14550252D-08  0.26246579D-08
  0.38694375D-08 -0.57222944D-08 -0.66921309D-08 -0.24466000D-08  0.10759048D-06
  0.37489595D-07  0.18903839D-01  0.40662010D-07  0.18815608D-07  0.74172108D-02
  0.12353622D-08  0.22284172D-08  0.32852743D-08 -0.11200024D-07 -0.27737902D-08
  0.46193174D-08  0.10655082D-06  0.36893602D-07  0.18903830D-01  0.38627576D-07
  0.85855288D-08  0.74172257D-02
MO   10     MO 0.0        OCC NO =    1.0000000  ORB. ENERGY =   -0.352906
 -0.71478099D-09 -0.13145926D-08 -0.21517065D-08 -0.28996974D-08 -0.28684184D-08
 -0.31926315D-09 -0.15079573D-08 -0.40308386D-08  0.57572384D-11  0.18989383D-05
  0.19497266D-05  0.14734935D-05  0.14884434D-05  0.15282527D-05  0.11549673D-05
 -0.11264763D+01 -0.11566046D+01 -0.87409661D+00  0.35226595D-08  0.66346557D-06
  0.52168331D-06 -0.39500865D+00  0.30618516D-08  0.12978840D-06  0.99327419D-07
 -0.74111496D-01 -0.26502996D-08  0.36749020D-08  0.45560963D-08 -0.40616929D-02
  0.78602811D-07  0.60597361D-10 -0.78663408D-07  0.61087119D-07 -0.47335865D-01
 -0.56315394D-06  0.33255223D-07  0.11024848D-08 -0.34357707D-07  0.26491306D-07
 -0.19306151D-01 -0.23734442D-06  0.89110602D-09  0.16074281D-08  0.23697728D-08
 -0.17568586D-08  0.45856892D-08 -0.42019898D-08  0.29625236D-07  0.26919969D-07
 -0.18913718D-01  0.12700469D-07  0.85340711D-08 -0.73653138D-02  0.73000597D-09
  0.13168266D-08  0.19413495D-08 -0.40796756D-08  0.64208876D-08 -0.15910556D-08
  0.30244829D-07  0.23733610D-07 -0.18913694D-01  0.13524012D-07  0.11761707D-07
 -0.73653341D-02  0.71652811D-08  0.13178058D-07  0.21569659D-07  0.29067851D-07
  0.28754296D-07  0.32004352D-08  0.14048205D-07  0.37551491D-07 -0.53634716D-10
  0.64043007D-05  0.65755878D-05  0.49694588D-05  0.22355432D-05  0.22953342D-05
  0.17346843D-05  0.11266684D+01  0.11568019D+01  0.87424570D+00 -0.27735203D-07
  0.22456292D-05  0.78366059D-06  0.39507608D+00  0.18275459D-08  0.41345526D-06
  0.14847853D-06  0.74124090D-01  0.21755762D-07  0.18210139D-07  0.72504262D-08
  0.40624070D-02 -0.27378470D-06 -0.26868951D-08  0.27647159D-06 -0.92482930D-07
 -0.47343930D-01 -0.35295924D-06 -0.11033111D-06 -0.20863510D-08  0.11241746D-06
 -0.39295351D-07 -0.19309439D-01 -0.14584173D-06  0.99781207D-09  0.17999106D-08
  0.26535427D-08 -0.54151589D-08 -0.12544615D-07  0.31776990D-08  0.10679324D-06
  0.37407169D-07  0.18916922D-01  0.40003385D-07  0.19552560D-07  0.73665809D-02
  0.11588723D-08  0.20904404D-08  0.30818601D-08 -0.30936254D-08 -0.14378667D-07
  0.56827189D-09  0.10741250D-06  0.38333948D-07  0.18916912D-01  0.40826688D-07
  0.10512447D-07  0.73665970D-02
MO   11     MO 0.0        OCC NO =    1.0000000  ORB. ENERGY =    0.017765
 -0.14494220D-01 -0.26657110D-01 -0.43631978D-01 -0.58799625D-01 -0.58165353D-01
 -0.64739697D-02 -0.28463288D-01 -0.76083666D-01  0.10867014D-03  0.19802332D+00
  0.20331958D+00  0.15365748D+00  0.15018214D-05  0.15419886D-05  0.11653481D-05
  0.31404284D-06  0.32244212D-06  0.24368358D-06  0.50463296D-01  0.65963966D-01
  0.52323963D-06  0.92434434D-07  0.95793309D-03  0.19506342D-01  0.89916844D-07
  0.40548796D-07  0.65497891D-01  0.34410469D-02  0.79962066D-07 -0.46469752D-09
  0.27590680D-02  0.44835845D-03 -0.32074264D-02  0.64802678D-07  0.20134589D-07
  0.10569327D-07  0.33092346D-02 -0.19567954D-02 -0.13524392D-02  0.70275110D-07
  0.17335166D-07 -0.17886200D-08  0.12660499D-03  0.22837733D-03  0.33668839D-03
 -0.80069566D-02 -0.99733028D-02 -0.26560907D-01 -0.49487795D-02  0.84757835D-02
  0.35151302D-08 -0.59912469D-02  0.46417813D-02 -0.49151692D-08  0.12659776D-03
  0.22836429D-03  0.33666916D-03 -0.80068479D-02 -0.99733782D-02 -0.26560897D-01
 -0.49485356D-02 -0.84758895D-02 -0.19290467D-07 -0.59911344D-02 -0.46419066D-02
 -0.16273191D-07 -0.14494225D-01 -0.26657118D-01 -0.43631991D-01 -0.58799642D-01
 -0.58165370D-01 -0.64739717D-02 -0.28463296D-01 -0.76083688D-01  0.10867017D-03
 -0.19802351D+00 -0.20331978D+00 -0.15365763D+00 -0.77884774D-06 -0.79967853D-06
 -0.60435197D-06  0.83170237D-06  0.85394678D-06  0.64536486D-06  0.50463306D-01
 -0.65964043D-01 -0.26482775D-06  0.27405068D-06  0.95796774D-03 -0.19506370D-01
 -0.69323945D-07  0.82989434D-07  0.65497886D-01 -0.34410504D-02 -0.32468600D-07
  0.19579584D-07  0.27590706D-02  0.44834856D-03 -0.32074192D-02  0.20090264D-07
 -0.71949478D-07 -0.15415882D-07  0.33092394D-02 -0.19567931D-02 -0.13524463D-02
  0.53705886D-07 -0.52593638D-07  0.25896648D-08  0.12660065D-03  0.22836952D-03
  0.33667686D-03 -0.80069591D-02 -0.99733053D-02 -0.26560980D-01  0.49487406D-02
 -0.84758035D-02 -0.12211899D-07  0.59912324D-02 -0.46418126D-02 -0.20619010D-07
  0.12659541D-03  0.22836006D-03  0.33666292D-03 -0.80069028D-02 -0.99733710D-02
 -0.26560834D-01  0.49485858D-02  0.84758705D-02 -0.46253951D-07  0.59911441D-02
  0.46418604D-02 -0.38130716D-07
MO   12     MO 0.0        OCC NO =    1.0000000  ORB. ENERGY =  -20.410429
 -0.35004768D+00 -0.64379174D+00 -0.10537492D+01 -0.14200607D+01 -0.14047425D+01
 -0.15635185D+00 -0.33343046D+00 -0.89127482D+00  0.12730060D-02 -0.45698034D-02
 -0.46920257D-02 -0.35459687D-02 -0.57455465D-07 -0.58992149D-07 -0.44582942D-07
 -0.77179624D-08 -0.79243843D-08 -0.59888031D-08 -0.19565891D-02  0.45949995D-03
  0.58342130D-08  0.78245220D-09  0.27048108D-03  0.43094984D-04  0.46837591D-09
  0.63970778D-10 -0.74706505D-04 -0.58768298D-05 -0.52958439D-10 -0.89308179D-11
 -0.19311299D-04 -0.35057999D-04  0.54369298D-04  0.13283409D-08 -0.22260491D-09
 -0.23928311D-09  0.22841396D-04  0.88819496D-04 -0.11166089D-03 -0.14234058D-08
  0.44042148D-09  0.53393735D-09 -0.25269797D-04 -0.45583108D-04 -0.67201516D-04
 -0.13000712D-03  0.24720139D-04  0.50226461D-05  0.71090678D-04 -0.11863290D-03
 -0.42991027D-10  0.40446668D-04 -0.50467988D-04  0.39891281D-12 -0.25269766D-04
 -0.45583052D-04 -0.67201434D-04 -0.13000718D-03  0.24720222D-04  0.50224915D-05
  0.71087944D-04  0.11863483D-03  0.27712987D-09  0.40445448D-04  0.50468873D-04
  0.13093558D-09  0.56485374D+00  0.10388533D+01  0.17003802D+01  0.22914780D+01
  0.22667598D+01  0.25229684D+00  0.53804014D+00  0.14382058D+01 -0.20541863D-02
 -0.73688729D-02 -0.75659581D-02 -0.57179248D-02 -0.57115288D-07 -0.58642873D-07
 -0.44318979D-07  0.44256659D-07  0.45440331D-07  0.34341242D-07  0.31539761D-02