 Title Card Required
GAUSSIAN             16 MOL ORBITALS    531 PRIMITIVES        5 NUCLEI
  C    1    (CENTRE  1)   0.82416936  0.93489495 -0.00008728  CHARGE =  6.0
  H    2    (CENTRE  2)   1.24886230  2.94198260  0.00047208  CHARGE =  1.0
  O    3    (CENTRE  3)   2.96141959 -0.39370123 -0.00005894  CHARGE =  8.0
  S    4    (CENTRE  4)  -2.02587762 -0.20157924  0.00000000  CHARGE = 16.0
  H    5    (CENTRE  5)   2.52880676 -2.17647460  0.00049853  CHARGE =  1.0
CENTRE ASSIGNMENTS    1  1  1  1  1  1  1  1  1  1  1  1  1  1  1  1  1  1  1  1
CENTRE ASSIGNMENTS    1  1  1  1  1  1  1  1  1  1  1  1  1  1  1  1  1  1  1  1
CENTRE ASSIGNMENTS    1  1  1  1  1  1  1  1  1  1  1  1  1  1  1  1  1  1  1  1
CENTRE ASSIGNMENTS    1  1  1  1  1  1  1  1  1  1  1  1  1  1  1  1  1  1  1  1
CENTRE ASSIGNMENTS    1  1  1  1  1  1  1  1  1  1  1  1  1  1  1  1  1  1  1  1
CENTRE ASSIGNMENTS    1  1  1  1  1  1  1  1  1  1  1  1  1  1  1  1  1  1  1  1
CENTRE ASSIGNMENTS    1  1  1  1  2  2  2  2  2  2  2  2  2  2  2  2  2  2  2  2
CENTRE ASSIGNMENTS    2  2  2  2  2  2  2  2  2  2  2  2  2  2  2  2  2  2  2  2
CENTRE ASSIGNMENTS    2  2  2  2  2  2  2  2  2  2  2  2  2  2  2  2  2  2  2  2
CENTRE ASSIGNMENTS    2  3  3  3  3  3  3  3  3  3  3  3  3  3  3  3  3  3  3  3
CENTRE ASSIGNMENTS    3  3  3  3  3  3  3  3  3  3  3  3  3  3  3  3  3  3  3  3
CENTRE ASSIGNMENTS    3  3  3  3  3  3  3  3  3  3  3  3  3  3  3  3  3  3  3  3
CENTRE ASSIGNMENTS    3  3  3  3  3  3  3  3  3  3  3  3  3  3  3  3  3  3  3  3
CENTRE ASSIGNMENTS    3  3  3  3  3  3  3  3  3  3  3  3  3  3  3  3  3  3  3  3
CENTRE ASSIGNMENTS    3  3  3  3  3  3  3  3  3  3  3  3  3  3  3  3  3  3  3  3
CENTRE ASSIGNMENTS    3  3  3  3  3  4  4  4  4  4  4  4  4  4  4  4  4  4  4  4
CENTRE ASSIGNMENTS    4  4  4  4  4  4  4  4  4  4  4  4  4  4  4  4  4  4  4  4
CENTRE ASSIGNMENTS    4  4  4  4  4  4  4  4  4  4  4  4  4  4  4  4  4  4  4  4
CENTRE ASSIGNMENTS    4  4  4  4  4  4  4  4  4  4  4  4  4  4  4  4  4  4  4  4
CENTRE ASSIGNMENTS    4  4  4  4  4  4  4  4  4  4  4  4  4  4  4  4  4  4  4  4
CENTRE ASSIGNMENTS    4  4  4  4  4  4  4  4  4  4  4  4  4  4  4  4  4  4  4  4
CENTRE ASSIGNMENTS    4  4  4  4  4  4  4  4  4  4  4  4  4  4  4  4  4  4  4  4
CENTRE ASSIGNMENTS    4  4  4  4  4  4  4  4  4  4  4  4  4  4  4  4  4  4  4  4
CENTRE ASSIGNMENTS    4  4  4  4  4  4  4  4  4  4  4  4  4  4  5  5  5  5  5  5
CENTRE ASSIGNMENTS    5  5  5  5  5  5  5  5  5  5  5  5  5  5  5  5  5  5  5  5
CENTRE ASSIGNMENTS    5  5  5  5  5  5  5  5  5  5  5  5  5  5  5  5  5  5  5  5
CENTRE ASSIGNMENTS    5  5  5  5  5  5  5  5  5  5  5
TYPE ASSIGNMENTS      1  1  1  1  1  1  1  1  1  1  1  1  1  1  1  1  1  1  1  2
TYPE ASSIGNMENTS      2  2  3  3  3  4  4  4  2  3  4  2  3  4  2  3  4  2  3  4
TYPE ASSIGNMENTS      5  6  7  8  9 10  5  6  7  8  9 10  5  6  7  8  9 10  5  6
TYPE ASSIGNMENTS      7  8  9 10 11 12 13 17 14 15 18 19 16 20 11 12 13 17 14 15
TYPE ASSIGNMENTS     18 19 16 20 11 12 13 17 14 15 18 19 16 20 23 29 32 27 22 28
TYPE ASSIGNMENTS     35 34 26 31 33 30 25 24 21 23 29 32 27 22 28 35 34 26 31 33
TYPE ASSIGNMENTS     30 25 24 21  1  1  1  1  1  1  1  2  3  4  2  3  4  2  3  4
TYPE ASSIGNMENTS      2  3  4  5  6  7  8  9 10  5  6  7  8  9 10  5  6  7  8  9
TYPE ASSIGNMENTS     10 11 12 13 17 14 15 18 19 16 20 11 12 13 17 14 15 18 19 16
TYPE ASSIGNMENTS     20  1  1  1  1  1  1  1  1  1  1  1  1  1  1  1  1  1  1  1
TYPE ASSIGNMENTS      2  2  2  3  3  3  4  4  4  2  3  4  2  3  4  2  3  4  2  3
TYPE ASSIGNMENTS      4  5  6  7  8  9 10  5  6  7  8  9 10  5  6  7  8  9 10  5
TYPE ASSIGNMENTS      6  7  8  9 10 11 12 13 17 14 15 18 19 16 20 11 12 13 17 14
TYPE ASSIGNMENTS     15 18 19 16 20 11 12 13 17 14 15 18 19 16 20 23 29 32 27 22
TYPE ASSIGNMENTS     28 35 34 26 31 33 30 25 24 21 23 29 32 27 22 28 35 34 26 31
TYPE ASSIGNMENTS     33 30 25 24 21  1  1  1  1  1  1  1  1  1  1  1  1  1  1  1
TYPE ASSIGNMENTS      1  1  1  1  1  1  1  1  1  1  1  1  1  1  1  1  2  2  2  2
TYPE ASSIGNMENTS      2  2  2  3  3  3  3  3  3  3  4  4  4  4  4  4  4  2  2  2
TYPE ASSIGNMENTS      2  2  2  2  3  3  3  3  3  3  3  4  4  4  4  4  4  4  2  3
TYPE ASSIGNMENTS      4  2  3  4  2  3  4  2  3  4  5  6  7  8  9 10  5  6  7  8
TYPE ASSIGNMENTS      9 10  5  6  7  8  9 10  5  6  7  8  9 10 11 12 13 17 14 15
TYPE ASSIGNMENTS     18 19 16 20 11 12 13 17 14 15 18 19 16 20 11 12 13 17 14 15
TYPE ASSIGNMENTS     18 19 16 20 23 29 32 27 22 28 35 34 26 31 33 30 25 24 21 23
TYPE ASSIGNMENTS     29 32 27 22 28 35 34 26 31 33 30 25 24 21  1  1  1  1  1  1
TYPE ASSIGNMENTS      1  2  3  4  2  3  4  2  3  4  2  3  4  5  6  7  8  9 10  5
TYPE ASSIGNMENTS      6  7  8  9 10  5  6  7  8  9 10 11 12 13 17 14 15 18 19 16
TYPE ASSIGNMENTS     20 11 12 13 17 14 15 18 19 16 20
EXPONENTS  0.3398000D+05 0.5089000D+04 0.1157000D+04 0.3266000D+03 0.1061000D+03
EXPONENTS  0.3811000D+02 0.1475000D+02 0.6035000D+01 0.5089000D+04 0.3266000D+03
EXPONENTS  0.1061000D+03 0.3811000D+02 0.1475000D+02 0.6035000D+01 0.2530000D+01
EXPONENTS  0.7355000D+00 0.2905000D+00 0.1111000D+00 0.4145000D-01 0.3451000D+02
EXPONENTS  0.7915000D+01 0.2368000D+01 0.3451000D+02 0.7915000D+01 0.2368000D+01
EXPONENTS  0.3451000D+02 0.7915000D+01 0.2368000D+01 0.8132000D+00 0.8132000D+00
EXPONENTS  0.8132000D+00 0.2890000D+00 0.2890000D+00 0.2890000D+00 0.1007000D+00
EXPONENTS  0.1007000D+00 0.1007000D+00 0.3218000D-01 0.3218000D-01 0.3218000D-01
EXPONENTS  0.1848000D+01 0.1848000D+01 0.1848000D+01 0.1848000D+01 0.1848000D+01
EXPONENTS  0.1848000D+01 0.6490000D+00 0.6490000D+00 0.6490000D+00 0.6490000D+00
EXPONENTS  0.6490000D+00 0.6490000D+00 0.2280000D+00 0.2280000D+00 0.2280000D+00
EXPONENTS  0.2280000D+00 0.2280000D+00 0.2280000D+00 0.7660000D-01 0.7660000D-01
EXPONENTS  0.7660000D-01 0.7660000D-01 0.7660000D-01 0.7660000D-01 0.1419000D+01
EXPONENTS  0.1419000D+01 0.1419000D+01 0.1419000D+01 0.1419000D+01 0.1419000D+01
EXPONENTS  0.1419000D+01 0.1419000D+01 0.1419000D+01 0.1419000D+01 0.4850000D+00
EXPONENTS  0.4850000D+00 0.4850000D+00 0.4850000D+00 0.4850000D+00 0.4850000D+00
EXPONENTS  0.4850000D+00 0.4850000D+00 0.4850000D+00 0.4850000D+00 0.1870000D+00
EXPONENTS  0.1870000D+00 0.1870000D+00 0.1870000D+00 0.1870000D+00 0.1870000D+00
EXPONENTS  0.1870000D+00 0.1870000D+00 0.1870000D+00 0.1870000D+00 0.1011000D+01
EXPONENTS  0.1011000D+01 0.1011000D+01 0.1011000D+01 0.1011000D+01 0.1011000D+01
EXPONENTS  0.1011000D+01 0.1011000D+01 0.1011000D+01 0.1011000D+01 0.1011000D+01
EXPONENTS  0.1011000D+01 0.1011000D+01 0.1011000D+01 0.1011000D+01 0.4240000D+00
EXPONENTS  0.4240000D+00 0.4240000D+00 0.4240000D+00 0.4240000D+00 0.4240000D+00
EXPONENTS  0.4240000D+00 0.4240000D+00 0.4240000D+00 0.4240000D+00 0.4240000D+00
EXPONENTS  0.4240000D+00 0.4240000D+00 0.4240000D+00 0.4240000D+00 0.8264000D+02
EXPONENTS  0.1241000D+02 0.2824000D+01 0.7977000D+00 0.2581000D+00 0.8989000D-01
EXPONENTS  0.2363000D-01 0.2292000D+01 0.2292000D+01 0.2292000D+01 0.8380000D+00
EXPONENTS  0.8380000D+00 0.8380000D+00 0.2920000D+00 0.2920000D+00 0.2920000D+00
EXPONENTS  0.8480000D-01 0.8480000D-01 0.8480000D-01 0.2062000D+01 0.2062000D+01
EXPONENTS  0.2062000D+01 0.2062000D+01 0.2062000D+01 0.2062000D+01 0.6620000D+00
EXPONENTS  0.6620000D+00 0.6620000D+00 0.6620000D+00 0.6620000D+00 0.6620000D+00
EXPONENTS  0.1900000D+00 0.1900000D+00 0.1900000D+00 0.1900000D+00 0.1900000D+00
EXPONENTS  0.1900000D+00 0.1397000D+01 0.1397000D+01 0.1397000D+01 0.1397000D+01
EXPONENTS  0.1397000D+01 0.1397000D+01 0.1397000D+01 0.1397000D+01 0.1397000D+01
EXPONENTS  0.1397000D+01 0.3600000D+00 0.3600000D+00 0.3600000D+00 0.3600000D+00
EXPONENTS  0.3600000D+00 0.3600000D+00 0.3600000D+00 0.3600000D+00 0.3600000D+00
EXPONENTS  0.3600000D+00 0.6142000D+05 0.9199000D+04 0.2091000D+04 0.5909000D+03
EXPONENTS  0.1923000D+03 0.6932000D+02 0.2697000D+02 0.1110000D+02 0.9199000D+04
EXPONENTS  0.5909000D+03 0.1923000D+03 0.6932000D+02 0.2697000D+02 0.1110000D+02
EXPONENTS  0.4682000D+01 0.1428000D+01 0.5547000D+00 0.2067000D+00 0.6959000D-01
EXPONENTS  0.6342000D+02 0.1466000D+02 0.4459000D+01 0.6342000D+02 0.1466000D+02
EXPONENTS  0.4459000D+01 0.6342000D+02 0.1466000D+02 0.4459000D+01 0.1531000D+01
EXPONENTS  0.1531000D+01 0.1531000D+01 0.5302000D+00 0.5302000D+00 0.5302000D+00
EXPONENTS  0.1750000D+00 0.1750000D+00 0.1750000D+00 0.5348000D-01 0.5348000D-01
EXPONENTS  0.5348000D-01 0.3775000D+01 0.3775000D+01 0.3775000D+01 0.3775000D+01
EXPONENTS  0.3775000D+01 0.3775000D+01 0.1300000D+01 0.1300000D+01 0.1300000D+01
EXPONENTS  0.1300000D+01 0.1300000D+01 0.1300000D+01 0.4440000D+00 0.4440000D+00
EXPONENTS  0.4440000D+00 0.4440000D+00 0.4440000D+00 0.4440000D+00 0.1540000D+00
EXPONENTS  0.1540000D+00 0.1540000D+00 0.1540000D+00 0.1540000D+00 0.1540000D+00
EXPONENTS  0.2666000D+01 0.2666000D+01 0.2666000D+01 0.2666000D+01 0.2666000D+01
EXPONENTS  0.2666000D+01 0.2666000D+01 0.2666000D+01 0.2666000D+01 0.2666000D+01
EXPONENTS  0.8590000D+00 0.8590000D+00 0.8590000D+00 0.8590000D+00 0.8590000D+00
EXPONENTS  0.8590000D+00 0.8590000D+00 0.8590000D+00 0.8590000D+00 0.8590000D+00
EXPONENTS  0.3240000D+00 0.3240000D+00 0.3240000D+00 0.3240000D+00 0.3240000D+00
EXPONENTS  0.3240000D+00 0.3240000D+00 0.3240000D+00 0.3240000D+00 0.3240000D+00
EXPONENTS  0.1846000D+01 0.1846000D+01 0.1846000D+01 0.1846000D+01 0.1846000D+01
EXPONENTS  0.1846000D+01 0.1846000D+01 0.1846000D+01 0.1846000D+01 0.1846000D+01
EXPONENTS  0.1846000D+01 0.1846000D+01 0.1846000D+01 0.1846000D+01 0.1846000D+01
EXPONENTS  0.7140000D+00 0.7140000D+00 0.7140000D+00 0.7140000D+00 0.7140000D+00
EXPONENTS  0.7140000D+00 0.7140000D+00 0.7140000D+00 0.7140000D+00 0.7140000D+00
EXPONENTS  0.7140000D+00 0.7140000D+00 0.7140000D+00 0.7140000D+00 0.7140000D+00
EXPONENTS  0.7278000D+06 0.1090000D+06 0.2480000D+05 0.7014000D+04 0.2278000D+04
EXPONENTS  0.8147000D+03 0.3134000D+03 0.1277000D+03 0.5448000D+02 0.2385000D+02
EXPONENTS  0.9428000D+01 0.2278000D+04 0.8147000D+03 0.3134000D+03 0.1277000D+03
EXPONENTS  0.5448000D+02 0.2385000D+02 0.9428000D+01 0.4290000D+01 0.2278000D+04
EXPONENTS  0.8147000D+03 0.1277000D+03 0.5448000D+02 0.2385000D+02 0.9428000D+01
EXPONENTS  0.4290000D+01 0.1909000D+01 0.6270000D+00 0.2873000D+00 0.1172000D+00
EXPONENTS  0.4280000D-01 0.1546000D+04 0.3664000D+03 0.1184000D+03 0.4453000D+02
EXPONENTS  0.1838000D+02 0.7965000D+01 0.3541000D+01 0.1546000D+04 0.3664000D+03
EXPONENTS  0.1184000D+03 0.4453000D+02 0.1838000D+02 0.7965000D+01 0.3541000D+01
EXPONENTS  0.1546000D+04 0.3664000D+03 0.1184000D+03 0.4453000D+02 0.1838000D+02
EXPONENTS  0.7965000D+01 0.3541000D+01 0.1546000D+04 0.1184000D+03 0.4453000D+02
EXPONENTS  0.1838000D+02 0.7965000D+01 0.3541000D+01 0.1591000D+01 0.1546000D+04
EXPONENTS  0.1184000D+03 0.4453000D+02 0.1838000D+02 0.7965000D+01 0.3541000D+01
EXPONENTS  0.1591000D+01 0.1546000D+04 0.1184000D+03 0.4453000D+02 0.1838000D+02
EXPONENTS  0.7965000D+01 0.3541000D+01 0.1591000D+01 0.6205000D+00 0.6205000D+00
EXPONENTS  0.6205000D+00 0.2420000D+00 0.2420000D+00 0.2420000D+00 0.9014000D-01
EXPONENTS  0.9014000D-01 0.9014000D-01 0.3170000D-01 0.3170000D-01 0.3170000D-01
EXPONENTS  0.2030000D+00 0.2030000D+00 0.2030000D+00 0.2030000D+00 0.2030000D+00
EXPONENTS  0.2030000D+00 0.5040000D+00 0.5040000D+00 0.5040000D+00 0.5040000D+00
EXPONENTS  0.5040000D+00 0.5040000D+00 0.1250000D+01 0.1250000D+01 0.1250000D+01
EXPONENTS  0.1250000D+01 0.1250000D+01 0.1250000D+01 0.7480000D-01 0.7480000D-01
EXPONENTS  0.7480000D-01 0.7480000D-01 0.7480000D-01 0.7480000D-01 0.3350000D+00
EXPONENTS  0.3350000D+00 0.3350000D+00 0.3350000D+00 0.3350000D+00 0.3350000D+00
EXPONENTS  0.3350000D+00 0.3350000D+00 0.3350000D+00 0.3350000D+00 0.8690000D+00
EXPONENTS  0.8690000D+00 0.8690000D+00 0.8690000D+00 0.8690000D+00 0.8690000D+00
EXPONENTS  0.8690000D+00 0.8690000D+00 0.8690000D+00 0.8690000D+00 0.1400000D+00
EXPONENTS  0.1400000D+00 0.1400000D+00 0.1400000D+00 0.1400000D+00 0.1400000D+00
EXPONENTS  0.1400000D+00 0.1400000D+00 0.1400000D+00 0.1400000D+00 0.6830000D+00
EXPONENTS  0.6830000D+00 0.6830000D+00 0.6830000D+00 0.6830000D+00 0.6830000D+00
EXPONENTS  0.6830000D+00 0.6830000D+00 0.6830000D+00 0.6830000D+00 0.6830000D+00
EXPONENTS  0.6830000D+00 0.6830000D+00 0.6830000D+00 0.6830000D+00 0.2970000D+00
EXPONENTS  0.2970000D+00 0.2970000D+00 0.2970000D+00 0.2970000D+00 0.2970000D+00
EXPONENTS  0.2970000D+00 0.2970000D+00 0.2970000D+00 0.2970000D+00 0.2970000D+00
EXPONENTS  0.2970000D+00 0.2970000D+00 0.2970000D+00 0.2970000D+00 0.8264000D+02
EXPONENTS  0.1241000D+02 0.2824000D+01 0.7977000D+00 0.2581000D+00 0.8989000D-01
EXPONENTS  0.2363000D-01 0.2292000D+01 0.2292000D+01 0.2292000D+01 0.8380000D+00
EXPONENTS  0.8380000D+00 0.8380000D+00 0.2920000D+00 0.2920000D+00 0.2920000D+00
EXPONENTS  0.8480000D-01 0.8480000D-01 0.8480000D-01 0.2062000D+01 0.2062000D+01
EXPONENTS  0.2062000D+01 0.2062000D+01 0.2062000D+01 0.2062000D+01 0.6620000D+00
EXPONENTS  0.6620000D+00 0.6620000D+00 0.6620000D+00 0.6620000D+00 0.6620000D+00
EXPONENTS  0.1900000D+00 0.1900000D+00 0.1900000D+00 0.1900000D+00 0.1900000D+00
EXPONENTS  0.1900000D+00 0.1397000D+01 0.1397000D+01 0.1397000D+01 0.1397000D+01
EXPONENTS  0.1397000D+01 0.1397000D+01 0.1397000D+01 0.1397000D+01 0.1397000D+01
EXPONENTS  0.1397000D+01 0.3600000D+00 0.3600000D+00 0.3600000D+00 0.3600000D+00
EXPONENTS  0.3600000D+00 0.3600000D+00 0.3600000D+00 0.3600000D+00 0.3600000D+00
EXPONENTS  0.3600000D+00
MO    1     MO 0.0        OCC NO =    2.0000000  ORB. ENERGY =  -88.886125
  0.13582043D-06  0.24865792D-06  0.43198186D-06  0.68773614D-06  0.10163577D-05
  0.12505684D-05  0.11927906D-05  0.51859119D-06  0.14802740D-07  0.82218662D-07
  0.15658458D-06  0.80775256D-06  0.16661377D-05  0.39526729D-05  0.26150219D-05
 -0.37367197D-03  0.10732140D-02  0.10361870D-02  0.29151908D-04  0.13545151D-03
  0.14444001D-03  0.12603829D-03  0.80348201D-04  0.85680070D-04  0.74764393D-04
  0.57819336D-09  0.61656200D-09  0.53801175D-09 -0.33894481D-03 -0.23177567D-03
 -0.77505077D-08 -0.18405830D-03 -0.20907134D-03 -0.26376663D-07  0.19268704D-03
  0.22703613D-03  0.89924903D-07  0.68821574D-06  0.65467416D-07  0.50086642D-09
 -0.58820926D-04 -0.98266038D-05  0.68647530D-04 -0.98448227D-05  0.18275858D-07
  0.36473310D-08  0.28350942D-03 -0.86426701D-04 -0.19708272D-03  0.17820440D-03
 -0.19610732D-07 -0.19763065D-07  0.84583422D-04 -0.33778762D-04 -0.50804660D-04
  0.47345981D-04 -0.24186983D-07  0.32579012D-08 -0.22551301D-04  0.23351998D-04
 -0.80069685D-06 -0.28705512D-04 -0.48207665D-08  0.17344790D-08 -0.10922272D-03
  0.54193284D-04 -0.56728993D-08  0.85134892D-04 -0.30974871D-03  0.19337083D-07
  0.24253326D-03  0.14716886D-03 -0.23183849D-08 -0.50459294D-07  0.47891430D-04
  0.79616328D-04  0.53031136D-08  0.37310767D-04 -0.15252555D-03 -0.27787183D-07
 -0.18098506D-03 -0.86323428D-04  0.11877842D-07  0.14533261D-06  0.65659511D-06
  0.13922415D-04 -0.46497636D-08  0.90324105D-05 -0.37932191D-04  0.92716172D-08
 -0.11002196D-04 -0.38350535D-05  0.46776736D-08  0.37248040D-07 -0.89341255D-05
  0.10023170D-07  0.11094807D-04 -0.20010989D-07  0.16078037D-04 -0.83587376D-08
  0.38042199D-04  0.29623834D-07  0.12137296D-03  0.42509946D-04  0.29963457D-07
 -0.10756303D-03 -0.15158736D-08 -0.13405369D-03  0.10842180D-04 -0.69570109D-05
 -0.43971532D-08 -0.15877649D-04 -0.98054487D-08  0.14946198D-05  0.91867896D-09
  0.46466497D-04  0.10938866D-06  0.26773827D-03  0.57619714D-04  0.42607806D-07
  0.69099296D-05 -0.37381565D-07 -0.28322710D-03 -0.10754941D-04  0.14392922D-04
  0.26556109D-04  0.43099773D-04 -0.46220955D-03 -0.11601433D-03 -0.63792849D-03
 -0.51714789D-05  0.16236691D-03  0.22674662D-04 -0.61597015D-07 -0.27733653D-03
  0.24187213D-03  0.19963080D-06 -0.14466784D-03 -0.12660814D-03  0.99668716D-08
  0.54771029D-04  0.38009124D-04  0.31097106D-07 -0.55804836D-04 -0.60689985D-04
  0.11649482D-03  0.75723294D-04  0.68657379D-08 -0.16342013D-06  0.15070140D-03
 -0.12332085D-04 -0.13836931D-03  0.86587020D-04  0.93624486D-08 -0.83662139D-08
  0.14264263D-04  0.10102148D-04 -0.24366411D-04  0.34986450D-05 -0.22451678D-07
  0.13062970D-07  0.13700424D-04  0.97843515D-06  0.60053934D-07  0.42081573D-04
 -0.18410690D-03 -0.11801340D-06 -0.83182844D-04  0.18117160D-03 -0.62148402D-07
  0.11976009D-06 -0.39662323D-05  0.29873033D-05  0.10556073D-07  0.26740074D-04
 -0.25447051D-04 -0.26762339D-07 -0.14841377D-04  0.16485141D-04 -0.49058788D-08
  0.44287285D-07 -0.21296259D-06 -0.39047674D-06 -0.67818654D-06 -0.10765064D-05
 -0.15905740D-05 -0.19455189D-05 -0.18393387D-05 -0.71221674D-06  0.23629530D-08
  0.18208699D-07  0.35693742D-07  0.18268656D-06  0.38614359D-06  0.88233136D-06
  0.49397173D-06  0.52719181D-04 -0.45408710D-03 -0.71333700D-04  0.92057424D-04
 -0.55916834D-04 -0.61982441D-04 -0.53975118D-04 -0.90704142D-04 -0.10054332D-03
 -0.87554435D-04  0.29915514D-07  0.33160614D-07  0.28876696D-07  0.54434013D-04
  0.23176575D-03 -0.58378838D-07  0.27293584D-03 -0.69813283D-03  0.98483778D-07
 -0.78848950D-04 -0.26547651D-03  0.26208965D-07 -0.39024224D-05  0.16426963D-04
 -0.69578440D-09  0.27404305D-04  0.95852937D-04 -0.12325724D-03 -0.25757526D-03
  0.29606019D-07 -0.11081165D-08 -0.38550431D-04 -0.63710944D-04  0.10226138D-03
  0.16499002D-03 -0.18748271D-07 -0.10673776D-07  0.14964240D-05  0.99128414D-04
 -0.10062484D-03  0.31438348D-03  0.27916052D-08  0.52645531D-07  0.18562173D-04
 -0.62787731D-05 -0.12283400D-04  0.54291573D-04 -0.28854709D-08 -0.10472353D-07
  0.16252526D-03 -0.71054262D-04  0.24807442D-07 -0.45744571D-03  0.14707275D-03
  0.16540438D-06 -0.30130072D-04  0.66090032D-04 -0.23982670D-06  0.46965799D-06
 -0.10670028D-03 -0.12844289D-04 -0.28093132D-07  0.31507272D-03 -0.48004184D-04
 -0.67716600D-07  0.50281075D-05  0.86537051D-04  0.15199600D-06 -0.24414159D-06
 -0.83276269D-05  0.16532530D-04  0.49117720D-08  0.47272266D-05 -0.41658856D-04
 -0.81551167D-08  0.20255654D-04 -0.79387348D-05 -0.65801995D-08 -0.26640006D-07
  0.11037672D-04 -0.37632385D-08  0.17231440D-03  0.30951931D-07 -0.30120401D-04
  0.10465211D-06 -0.16696106D-03 -0.83474159D-08  0.62317867D-04 -0.23854043D-03
 -0.81566078D-07  0.84080037D-05 -0.10186964D-06 -0.66641798D-05  0.38355405D-04
  0.87471537D-05  0.20980792D-07 -0.11004715D-03 -0.57478821D-07  0.58861570D-04
 -0.33450641D-07  0.64290928D-04  0.12032556D-07 -0.64465498D-04  0.57564230D-04
  0.10949408D-06 -0.24312227D-03  0.29439789D-07  0.43035188D-04  0.30926339D-04
  0.41937320D+00  0.78494554D+00  0.13590094D+01  0.22220339D+01  0.34559628D+01
  0.50572435D+01  0.66651859D+01  0.72672653D+01  0.54936182D+01  0.20344523D+01
  0.17363734D+00  0.57426945D-05  0.29295177D-04  0.11012823D-03  0.30664683D-03
  0.61274785D-03  0.52164826D-03 -0.38090335D-03 -0.62851100D-03  0.10410958D-04
 -0.13376024D-04 -0.99044365D-04 -0.19465082D-04 -0.98059620D-05  0.19126858D-04
 -0.21120342D-02 -0.34342561D-02  0.24911923D-02 -0.11709075D-02  0.54460872D-04
 -0.19753038D-04 -0.35917539D-03 -0.50420817D-03 -0.65580598D-03 -0.72430179D-03
 -0.66162728D-03 -0.41647529D-03 -0.18220212D-03 -0.18808370D-03 -0.26403073D-03
 -0.34341557D-03 -0.37928368D-03 -0.34646391D-03 -0.21808904D-03 -0.95410908D-04
 -0.24657482D-07 -0.34614020D-07 -0.45021248D-07 -0.49723503D-07 -0.45420882D-07
 -0.28591135D-07 -0.12508222D-07  0.94152742D-04  0.33957191D-03  0.43006092D-03
  0.11731238D-02  0.79008339D-03  0.94283682D-03 -0.82811272D-03  0.40208532D-04
  0.14501636D-03  0.18366027D-03  0.50099005D-03  0.33741018D-03  0.40264451D-03
 -0.35365085D-03  0.10801412D-08  0.38956446D-08  0.49337546D-08  0.13458338D-07
  0.90640125D-08  0.10816434D-07 -0.95002935D-08  0.10584682D-02  0.43722869D-03
  0.27519187D-08 -0.78380371D-03 -0.30717187D-03 -0.52827309D-07 -0.82183118D-04
 -0.33930092D-04 -0.26711748D-07 -0.18020848D-05 -0.31286372D-06  0.22595703D-09
 -0.17464285D-03  0.68754975D-04  0.10588787D-03 -0.23448119D-03 -0.25012488D-07
 -0.94067961D-09 -0.73886972D-04 -0.99427313D-05  0.83829703D-04 -0.18548812D-04
  0.17550431D-08 -0.42052623D-07  0.36879732D-03 -0.98102886D-04 -0.27069443D-03
  0.39652033D-03 -0.54537982D-07  0.26670517D-07 -0.64738925D-05  0.17277811D-05
  0.47461114D-05 -0.86072791D-05 -0.24006345D-08 -0.85890023D-09 -0.54056255D-04
  0.29962984D-04 -0.79466988D-09  0.29927078D-04 -0.13812211D-03  0.76987113D-08
  0.13224169D-03  0.48233164D-04 -0.53147017D-08 -0.71945740D-08  0.47767882D-04
 -0.70279026D-04  0.71161333D-08 -0.80246665D-04  0.23260328D-03 -0.16848772D-07
 -0.63056980D-04 -0.21766201D-04 -0.44996281D-08 -0.81352906D-07 -0.50982041D-05
  0.38500579D-05 -0.31766371D-09  0.47385225D-05 -0.16463787D-04 -0.67906144D-09
  0.10556090D-04  0.49136128D-05  0.16320526D-08  0.14570170D-08 -0.12323685D-04
  0.59613810D-08  0.72166841D-05  0.11691461D-07  0.18153290D-05  0.36231616D-08
  0.54966456D-04 -0.31984968D-07 -0.37679112D-04  0.66725427D-04 -0.52958527D-07
 -0.18108658D-04  0.70384943D-08  0.19356960D-04 -0.81027948D-05 -0.31554941D-05
 -0.63095200D-09 -0.29059333D-05 -0.84346988D-09  0.15339215D-06 -0.39514403D-08
  0.20818660D-04  0.14321157D-08  0.12513147D-04  0.21838898D-04  0.44232656D-08
  0.19855804D-05  0.34740684D-08 -0.19452700D-04 -0.39707463D-05  0.77064001D-05
  0.14218933D-04  0.23076905D-04 -0.19281974D-03 -0.29949543D-03 -0.20927447D-03
  0.18035295D-05  0.52398700D-04  0.20277906D-04 -0.74733306D-07 -0.22265403D-03
 -0.15881123D-03  0.15769887D-06 -0.31437224D-05 -0.80213809D-04  0.76776261D-07
  0.27488842D-04 -0.28373348D-04  0.12704539D-07 -0.48994606D-04  0.70344555D-05
  0.41960150D-04 -0.15559693D-03  0.87617343D-07 -0.57555016D-07 -0.19462516D-04
  0.17412397D-04  0.20501195D-05 -0.16541981D-03  0.66505800D-07  0.11234072D-06
 -0.21026638D-06  0.50387605D-05 -0.48284941D-05 -0.67313308D-05 -0.74668560D-08
  0.67545394D-08  0.45520622D-05  0.37840710D-04 -0.27458874D-07 -0.70712411D-04
 -0.12955031D-03  0.96957771D-07  0.57056224D-04  0.16028182D-04 -0.14581150D-07
  0.12042075D-06  0.57391610D-05  0.45562230D-05  0.24343902D-08 -0.18628801D-04
 -0.54298701D-05 -0.66172088D-08  0.14113178D-05 -0.82387991D-05 -0.68596182D-09
  0.97145383D-08
MO    2     MO 0.0        OCC NO =    2.0000000  ORB. ENERGY =  -19.207721
  0.53541816D-05  0.98023523D-05  0.17029171D-04  0.27111269D-04  0.40065871D-04
  0.49298698D-04  0.47021037D-04  0.20443401D-04 -0.13712234D-06 -0.76161683D-06
 -0.14504913D-05 -0.74824611D-05 -0.15433947D-04 -0.36614828D-04 -0.24223754D-04
 -0.28814648D-02  0.42012238D-02  0.28920780D-02  0.27365122D-03 -0.10724494D-02
 -0.11436166D-02 -0.99791937D-03  0.88236859D-03  0.94092215D-03  0.82104828D-03
  0.40858036D-07  0.43569356D-07  0.38018602D-07 -0.47161356D-03 -0.77837782D-03
 -0.10905768D-06  0.74560044D-02 -0.17994520D-02  0.49028858D-07  0.15321566D-03
 -0.10074500D-02  0.26630469D-07  0.69481330D-05 -0.20308724D-04 -0.92601687D-09
 -0.13991032D-02  0.40629258D-05  0.13950403D-02  0.28139849D-02  0.26621948D-06
 -0.51587522D-06  0.23879520D-02 -0.38522088D-03 -0.20027311D-02 -0.51545340D-02
 -0.20663887D-06  0.21653529D-06  0.11294031D-02 -0.32596211D-03 -0.80344097D-03
 -0.98058403D-03 -0.28339136D-06 -0.29838912D-06 -0.10708470D-04  0.38078328D-04
 -0.27369859D-04 -0.67514742D-04 -0.39655640D-07 -0.65530091D-07 -0.56996171D-04
  0.61965926D-03  0.60031352D-07  0.10810964D-02 -0.28244548D-02  0.77663445D-07
 -0.91010787D-03  0.96547703D-03 -0.25775750D-06 -0.65537884D-06  0.75908078D-03
  0.63074123D-03 -0.12199879D-07 -0.25656411D-03 -0.25669046D-02 -0.43364120D-07
 -0.20206782D-02  0.67468091D-03  0.79963756D-07  0.19236143D-06 -0.28639177D-04
  0.40165274D-04  0.66698157D-08  0.18634481D-03 -0.19601464D-03  0.15632394D-07
 -0.10042728D-03  0.75518818D-04 -0.35641841D-07  0.72227479D-07  0.61691022D-04
 -0.17112264D-06 -0.27148418D-03  0.29393628D-06 -0.42461159D-04 -0.41377624D-07
  0.11384309D-02 -0.11091589D-05  0.93977522D-03 -0.98661958D-04 -0.36844092D-06
  0.52625113D-03  0.41109724D-06 -0.13192522D-02 -0.71264862D-04  0.74077391D-04
  0.86429573D-07  0.19665858D-04 -0.84553033D-07 -0.10509579D-03  0.47441771D-07
  0.21439228D-03  0.38584007D-06  0.36575612D-03 -0.46413020D-03 -0.56296207D-08
  0.61090889D-03 -0.17605513D-06 -0.43722021D-03 -0.24463114D-04  0.12989716D-04
  0.23967080D-04  0.38897856D-04 -0.41231212D-03 -0.88370608D-03  0.48865149D-03
  0.13935398D-04  0.36512264D-03 -0.65367330D-04 -0.53975500D-07 -0.48648115D-03
  0.43854491D-03  0.15448309D-06 -0.86040134D-03  0.51606371D-03  0.56171211D-06
  0.63213924D-04 -0.10664167D-03  0.12354026D-06 -0.74834598D-05  0.28536582D-04
 -0.21053122D-04 -0.57587358D-03 -0.30660830D-06  0.12032213D-06 -0.15036563D-04
  0.66460467D-04 -0.51423904D-04  0.37913481D-03  0.33429136D-06 -0.32399276D-06
  0.78672052D-05 -0.18137953D-04  0.10270748D-04  0.38965267D-04  0.15120335D-07
 -0.61674403D-07 -0.12227104D-03 -0.29698361D-03 -0.11393831D-06  0.26212536D-03
  0.62342349D-03  0.20149477D-06  0.10468776D-03  0.26752735D-03  0.14032016D-06
 -0.49776280D-06 -0.28001078D-04 -0.49966694D-04  0.14313835D-07  0.10023064D-03
  0.10893012D-03  0.48549929D-07 -0.16227408D-04  0.40969964D-04 -0.91491434D-07
  0.31620987D-07  0.25337744D+00  0.46457922D+00  0.80688898D+00  0.12807997D+01
  0.18924242D+01  0.23147286D+01  0.21883981D+01  0.84737724D+00  0.23286616D-02
  0.17944452D-01  0.35175750D-01  0.18003539D+00  0.38053983D+00  0.86952687D+00
  0.48680316D+00  0.37741881D-01 -0.18115522D-01 -0.96967887D-02 -0.48538797D-03
 -0.79435075D-02 -0.88051835D-02 -0.76676688D-02 -0.24077658D-02 -0.26689495D-02
 -0.23241560D-02  0.83286551D-06  0.92321102D-06  0.80394421D-06 -0.36662821D-02
 -0.31468300D-02  0.16478710D-05  0.92372121D-02  0.34525497D-02 -0.23846883D-05
  0.11289903D-02  0.12837888D-02 -0.11041330D-06 -0.11357497D-04  0.16283798D-04
  0.22451147D-07  0.17988469D-02  0.64800905D-02 -0.82789373D-02 -0.26368350D-02
 -0.21167145D-05 -0.76300595D-05 -0.15188938D-02 -0.19339344D-02  0.34528283D-02
  0.13226208D-02  0.87593774D-06  0.26438366D-05  0.12945265D-02 -0.40285629D-02
  0.27340364D-02  0.18915237D-02  0.31680650D-06  0.31796447D-05  0.42849689D-04
 -0.68216513D-04  0.25366824D-04 -0.13422697D-03  0.24988068D-07  0.36624732D-07
  0.17178319D-02 -0.47026085D-02 -0.18269585D-05 -0.78345706D-02  0.97344877D-02
 -0.18819987D-05  0.26810750D-02  0.43733377D-02  0.73628742D-05  0.44634007D-05
 -0.95336569D-03  0.32860419D-02  0.12452527D-05  0.53927661D-02 -0.68764809D-02
  0.11670514D-05 -0.25326691D-02 -0.29816448D-02 -0.49028096D-05 -0.31322512D-05
 -0.10394775D-03  0.16300717D-03  0.38969960D-07  0.33778416D-03 -0.28709468D-03
 -0.50775377D-07 -0.25940921D-04 -0.20192681D-03 -0.66134502D-07 -0.29324096D-06
 -0.57220318D-03 -0.20374731D-05  0.23463068D-02  0.26908772D-05 -0.31909779D-03
 -0.59665649D-06  0.99301077D-03  0.60665869D-05 -0.43223570D-02  0.10869123D-02
 -0.19602122D-05 -0.43172007D-03 -0.14255391D-05  0.39913534D-02 -0.10919870D-03
 -0.24255837D-03 -0.10741930D-05  0.16910120D-02  0.12300177D-05 -0.36041907D-03
 -0.16096333D-06 -0.16164189D-03  0.61657400D-06 -0.84431327D-03 -0.23566173D-03
 -0.46747415D-06  0.47150247D-03 -0.44561337D-07  0.89819390D-03 -0.39306790D-04
 -0.18789760D-05 -0.35169005D-05 -0.60889585D-05 -0.99556868D-05 -0.15484230D-04
 -0.22658670D-04 -0.29862958D-04 -0.32560538D-04 -0.24613820D-04 -0.91152392D-05
 -0.77797149D-06  0.30006638D-06  0.15307271D-05  0.57544034D-05  0.16022862D-04
  0.32017205D-04  0.27257084D-04 -0.19902903D-04 -0.32840859D-04 -0.14686707D-06
  0.18869516D-06  0.13972158D-05  0.27459331D-06  0.13833240D-06 -0.26982199D-06
  0.29794401D-04  0.48446944D-04 -0.23026538D-03 -0.45703978D-03 -0.32444552D-03
 -0.10732776D-03  0.11520102D-03  0.16171848D-03  0.21034158D-03  0.23231076D-03
  0.21220869D-03  0.13357925D-03  0.58439056D-04 -0.41686604D-03 -0.58519394D-03
 -0.76114136D-03 -0.84063894D-03 -0.76789767D-03 -0.48336944D-03 -0.21146738D-03
  0.15680833D-07  0.22012655D-07  0.28631093D-07  0.31621474D-07  0.28885238D-07
  0.18182424D-07  0.79545566D-08 -0.16805776D-04 -0.60611825D-04 -0.76763644D-04
 -0.20939652D-03 -0.14102579D-03 -0.16829148D-03  0.14781383D-03  0.58650510D-04
  0.21152932D-03  0.26789759D-03  0.73077331D-03  0.49216616D-03  0.58732077D-03
 -0.51585575D-03 -0.28090506D-08 -0.10131141D-07 -0.12830884D-07 -0.35000193D-07
 -0.23572167D-07 -0.28129572D-07  0.24706774D-07 -0.20933579D-03  0.29405124D-03
  0.37147913D-07  0.31708215D-03  0.65393985D-04 -0.23035886D-06 -0.59370491D-04
  0.26628067D-04 -0.16549178D-06 -0.51461912D-05  0.10988951D-05 -0.19728687D-08
  0.14838419D-03 -0.15156507D-04 -0.13322768D-03  0.15934223D-03 -0.21415767D-06
 -0.49481901D-07 -0.27866944D-04  0.78980164D-04 -0.51113220D-04  0.82104139D-03
 -0.84111887D-07 -0.21316377D-06 -0.94860532D-05  0.24857498D-05  0.70003034D-05
 -0.47727699D-03  0.29924700D-07  0.19014293D-06  0.17522179D-05  0.12547191D-06
 -0.18776898D-05  0.73528375D-05 -0.24240703D-07  0.18997280D-08 -0.43878912D-04
 -0.43190350D-04  0.30607131D-07  0.17789344D-03  0.22515918D-03 -0.85322572D-07
 -0.46256701D-04 -0.95588126D-04 -0.64988218D-08 -0.14410558D-06 -0.10091457D-03
 -0.11275445D-03  0.52638173D-08  0.33688245D-03  0.34490114D-03  0.44623843D-07
 -0.34138728D-04 -0.66377958D-05 -0.60415295D-07 -0.19887576D-06  0.10112445D-04
  0.49049487D-07  0.27153380D-08 -0.69942156D-05  0.10295963D-04 -0.17589132D-07
 -0.23343119D-04 -0.10443112D-04  0.94431184D-08  0.11259040D-08  0.23491219D-05
  0.39091104D-07  0.42916771D-04  0.99128736D-08 -0.56567101D-04  0.34186052D-07
  0.99106726D-04 -0.14179885D-06 -0.43788523D-04 -0.57011503D-04 -0.14701193D-06
  0.29648583D-03  0.13080231D-07  0.10752947D-04 -0.39912389D-04 -0.12315372D-05
 -0.39327598D-08 -0.15010752D-04  0.88073126D-08 -0.64120594D-05  0.83540809D-08
 -0.59034868D-04  0.72491807D-08  0.55265035D-05  0.22399975D-04 -0.14623659D-07
  0.53483108D-04 -0.10770474D-07  0.14151786D-04 -0.12647180D-04 -0.24063874D-03
 -0.44399800D-03 -0.72059551D-03  0.73703575D-02  0.66083589D-02 -0.48470626D-03