----- GAMESS execution script 'rungms' -----
This job is running on host RHEL6U1
under operating system Linux at Mon May 8 23:45:18 CST 2017
Available scratch disk space (Kbyte units) at beginning of the job is
Filesystem           1K-blocks      Used Available Use% Mounted on
/dev/sda1             46363632  40132028   3876404  92% /
GAMESS temporary binary files will be written to /sob/gamess/scr
GAMESS supplementary output files will be written to /sob/gamess/scr
Copying input file test.inp to your run's scratch directory...
 
Assuming a single but multicore node.
 

 Distributed Data Interface kickoff program.
 Initiating 4 compute processes on 1 nodes to run the following command:
 /sob/gamess/gamess.00.x test 

          ******************************************************
          *         GAMESS VERSION = 18 AUG 2016 (R1)          *
          *             FROM IOWA STATE UNIVERSITY             *
          * M.W.SCHMIDT, K.K.BALDRIDGE, J.A.BOATZ, S.T.ELBERT, *
          *   M.S.GORDON, J.H.JENSEN, S.KOSEKI, N.MATSUNAGA,   *
          *          K.A.NGUYEN, S.J.SU, T.L.WINDUS,           *
          *       TOGETHER WITH M.DUPUIS, J.A.MONTGOMERY       *
          *         J.COMPUT.CHEM.  14, 1347-1363(1993)        *
          **************** 64 BIT INTEL VERSION ****************

  SINCE 1993, STUDENTS AND POSTDOCS WORKING AT IOWA STATE UNIVERSITY
  AND ALSO IN THEIR VARIOUS JOBS AFTER LEAVING ISU HAVE MADE IMPORTANT
  CONTRIBUTIONS TO THE CODE:
     IVANA ADAMOVIC, CHRISTINE AIKENS, YURI ALEXEEV, POOJA ARORA,
     ANDREY ASADCHEV, ROB BELL, PRADIPTA BANDYOPADHYAY, JONATHAN BENTZ,
     BRETT BODE, KURT BRORSEN, CALEB CARLIN, GALINA CHABAN, WEI CHEN,
     CHEOL HO CHOI, PAUL DAY, ALBERT DEFUSCO, NUWAN DESILVA, TIM DUDLEY,
     DMITRI FEDOROV, GRAHAM FLETCHER, MARK FREITAG, KURT GLAESEMANN,
     DAN KEMP, GRANT MERRILL, NORIYUKI MINEZAWA, JONATHAN MULLIN,
     TAKESHI NAGATA, SEAN NEDD, HEATHER NETZLOFF, BOSILJKA NJEGIC, RYAN OLSON,
     MIKE PAK, SPENCER PRUITT, LUKE ROSKOP, JIM SHOEMAKER, LYUDMILA SLIPCHENKO,
     TONY SMITH, SAROM SOK LEANG, JIE SONG, TETSUYA TAKETSUGU, SIMON WEBB,
     PENG XU, SOOHAENG YOO, FEDERICO ZAHARIEV

  ADDITIONAL CODE HAS BEEN PROVIDED BY COLLABORATORS IN OTHER GROUPS:
     IOWA STATE UNIVERSITY:
          JOE IVANIC, AARON WEST, LAIMUTIS BYTAUTAS, KLAUS RUEDENBERG
     UNIVERSITY OF TOKYO: KIMIHIKO HIRAO, TAKAHITO NAKAJIMA,
          TAKAO TSUNEDA, MUNEAKI KAMIYA, SUSUMU YANAGISAWA,
          KIYOSHI YAGI, MAHITO CHIBA, SEIKEN TOKURA, NAOAKI KAWAKAMI
     UNIVERSITY OF AARHUS: FRANK JENSEN
     UNIVERSITY OF IOWA: VISVALDAS KAIRYS, HUI LI
     NATIONAL INST. OF STANDARDS AND TECHNOLOGY: WALT STEVENS, DAVID GARMER
     UNIVERSITY OF PISA: BENEDETTA MENNUCCI, JACOPO TOMASI
     UNIVERSITY OF MEMPHIS: HENRY KURTZ, PRAKASHAN KORAMBATH
     UNIVERSITY OF ALBERTA: TOBY ZENG, MARIUSZ KLOBUKOWSKI
     UNIVERSITY OF NEW ENGLAND: MARK SPACKMAN
     MIE UNIVERSITY: HIROAKI UMEDA
     NAT. INST. OF ADVANCED INDUSTRIAL SCIENCE AND TECHNOLOGY: KAZUO KITAURA
     MICHIGAN STATE UNIVERSITY:
          KAROL KOWALSKI, MARTA WLOCH, JEFFREY GOUR, JESSE LUTZ,
          WEI LI, PIOTR PIECUCH
     UNIVERSITY OF SILESIA: MONIKA MUSIAL, STANISLAW KUCHARSKI
     FACULTES UNIVERSITAIRES NOTRE-DAME DE LA PAIX:
          OLIVIER QUINET, BENOIT CHAMPAGNE
     UNIVERSITY OF CALIFORNIA - SANTA BARBARA: BERNARD KIRTMAN
     INSTITUTE FOR MOLECULAR SCIENCE:
          KAZUYA ISHIMURA, MICHIO KATOUDA, AND SHIGERU NAGASE
     UNIVERSITY OF NOTRE DAME: ANNA POMOGAEVA, DAN CHIPMAN
     KYUSHU UNIVERSITY:
          HARUYUKI NAKANO,
          FENG LONG GU, JACEK KORCHOWIEC, MARCIN MAKOWSKI, AND YURIKO AOKI,
          HIROTOSHI MORI AND EISAKU MIYOSHI
     PENNSYLVANIA STATE UNIVERSITY:
          TZVETELIN IORDANOV, CHET SWALINA, JONATHAN SKONE,
          SHARON HAMMES-SCHIFFER
     WASEDA UNIVERSITY:
          MASATO KOBAYASHI, TOMOKO AKAMA, TSUGUKI TOUMA,
          TAKESHI YOSHIKAWA, YASUHIRO IKABATA, JUNJI SEINO,
          YUYA NAKAJIMA, HIROMI NAKAI
     NANJING UNIVERSITY: SHUHUA LI
     UNIVERSITY OF NEBRASKA:
          PEIFENG SU, DEJUN SI, NANDUN THELLAMUREGE, YALI WANG, HUI LI
     UNIVERSITY OF ZURICH: ROBERTO PEVERATI, KIM BALDRIDGE
     N. COPERNICUS UNIVERSITY AND JACKSON STATE UNIVERSITY:
          MARIA BARYSZ
     UNIVERSITY OF COPENHAGEN: Jimmy Kromann, CASPER STEINMANN
     TOKYO INSTITUTE OF TECHNOLOGY: HIROYA NAKATA
     NAGOYA UNIVERSITY: YOSHIO NISHIMOTO, STEPHAN IRLE
     MOSCOW STATE UNIVERSITY: VLADIMIR MIRONOV


 PARALLEL VERSION RUNNING ON        4 PROCESSORS IN        1 NODES.

 EXECUTION OF GAMESS BEGUN Mon May  8 23:45:19 2017

            ECHO OF THE FIRST FEW INPUT CARDS -
 INPUT CARD> $SYSTEM MWORDS=100 $END                                                        
 INPUT CARD> $CONTRL SCFTYP=UHF RUNTYP=Energy ISPHER=1 DFTTYP=BLYP mult=3 $END              
 INPUT CARD> $BASIS GBASIS=CCD $END                                                         
 INPUT CARD> $DATA                                                                          
 INPUT CARD>H2CO                                                                            
 INPUT CARD>C1                                                                              
 INPUT CARD>C   6.               0.01646410   -0.58657651    0.00000000                     
 INPUT CARD>H   1.              -0.89975307   -1.13924829    0.00000000                     
 INPUT CARD>O   8.              -0.00849072    0.71448419    0.00000000                     
 INPUT CARD>H   1.               0.86889421   -1.05716614    0.00000000                     
 INPUT CARD> $END                                                                           
  100000000 WORDS OF MEMORY AVAILABLE

     BASIS OPTIONS
     -------------
     GBASIS=CCD          IGAUSS=       0      POLAR=NONE    
     NDFUNC=       0     NFFUNC=       0     DIFFSP=       F
     NPFUNC=       0      DIFFS=       F     BASNAM=        


     RUN TITLE
     ---------
 H2CO                                                                            

 THE POINT GROUP OF THE MOLECULE IS C1      
 THE ORDER OF THE PRINCIPAL AXIS IS     0

 ATOM      ATOMIC                      COORDINATES (BOHR)
           CHARGE         X                   Y                   Z
 C           6.0     0.0311126376       -1.1084688747        0.0000000000
 H           1.0    -1.7002867589       -2.1528671001        0.0000000000
 O           8.0    -0.0160451342        1.3501793417        0.0000000000
 H           1.0     1.6419719692       -1.9977543281        0.0000000000

          INTERNUCLEAR DISTANCES (ANGS.)
          ------------------------------

                1 C          2 H          3 O          4 H     

   1 C       0.0000000    1.0700000 *  1.3013000 *  0.9737000 *
   2 H       1.0700000 *  0.0000000    2.0568599 *  1.7705510 *
   3 O       1.3013000 *  2.0568599 *  0.0000000    1.9770051 *
   4 H       0.9737000 *  1.7705510 *  1.9770051 *  0.0000000  

  * ... LESS THAN  3.000


     ATOMIC BASIS SET
     ----------------
 THE CONTRACTED PRIMITIVE FUNCTIONS HAVE BEEN UNNORMALIZED
 THE CONTRACTED BASIS FUNCTIONS ARE NOW NORMALIZED TO UNITY

  SHELL TYPE  PRIMITIVE        EXPONENT          CONTRACTION COEFFICIENT(S)

 C         

      1   S       1          6665.0000000    0.000691583963
      1   S       2          1000.0000000    0.005325796153
      1   S       3           228.0000000    0.027060721042
      1   S       4            64.7100000    0.101656846141
      1   S       5            21.0600000    0.274574823617
      1   S       6             7.4950000    0.448294318924
      1   S       7             2.7970000    0.284902610715
      1   S       8             0.5215000    0.015194859206

      2   S       9          6665.0000000   -0.000293269653
      2   S      10          1000.0000000   -0.002318035474
      2   S      11           228.0000000   -0.011499786039
      2   S      12            64.7100000   -0.046826727010
      2   S      13            21.0600000   -0.128466168750
      2   S      14             7.4950000   -0.301266272463
      2   S      15             2.7970000   -0.255630702330
      2   S      16             0.5215000    1.093793361012

      3   S      17             0.1596000    1.000000000000

      4   P      18             9.4390000    0.056979251590
      4   P      19             2.0020000    0.313207211501
      4   P      20             0.5456000    0.760376741738

      5   P      21             0.1517000    1.000000000000

      6   D      22             0.5500000    1.000000000000

 H         

      7   S      23            13.0100000    0.033498726390
      7   S      24             1.9620000    0.234800801174
      7   S      25             0.4446000    0.813682957883

      8   S      26             0.1220000    1.000000000000

      9   P      27             0.7270000    1.000000000000

 O         

     10   S      28         11720.0000000    0.000709645947
     10   S      29          1759.0000000    0.005467272292
     10   S      30           400.8000000    0.027823118610
     10   S      31           113.7000000    0.104747739711
     10   S      32            37.0300000    0.282920846357
     10   S      33            13.2700000    0.448495238698
     10   S      34             5.0250000    0.270816885213
     10   S      35             1.0130000    0.015450291607

     11   S      36         11720.0000000   -0.000314443412
     11   S      37          1759.0000000   -0.002482137681
     11   S      38           400.8000000   -0.012316355382
     11   S      39           113.7000000   -0.050538917344
     11   S      40            37.0300000   -0.139384903316
     11   S      41            13.2700000   -0.325077494818
     11   S      42             5.0250000   -0.229848307588
     11   S      43             1.0130000    1.095379346788

     12   S      44             0.3023000    1.000000000000

     13   P      45            17.7000000    0.062679166282
     13   P      46             3.8540000    0.333536565879
     13   P      47             1.0460000    0.741239641640

     14   P      48             0.2753000    1.000000000000

     15   D      49             1.1850000    1.000000000000

 H         

     16   S      50            13.0100000    0.033498726390
     16   S      51             1.9620000    0.234800801174
     16   S      52             0.4446000    0.813682957883

     17   S      53             0.1220000    1.000000000000

     18   P      54             0.7270000    1.000000000000

 TOTAL NUMBER OF BASIS SET SHELLS             =   18
 NUMBER OF CARTESIAN GAUSSIAN BASIS FUNCTIONS =   40
 NOTE: THIS RUN WILL RESTRICT THE MO VARIATION SPACE TO SPHERICAL HARMONICS.
 THE NUMBER OF ORBITALS KEPT IN THE VARIATIONAL SPACE WILL BE PRINTED LATER.
 NUMBER OF ELECTRONS                          =   16
 CHARGE OF MOLECULE                           =    0
 SPIN MULTIPLICITY                            =    3
 NUMBER OF OCCUPIED ORBITALS (ALPHA)          =    9
 NUMBER OF OCCUPIED ORBITALS (BETA )          =    7
 TOTAL NUMBER OF ATOMS                        =    4
 THE NUCLEAR REPULSION ENERGY IS       30.2459057494

     LEBEDEV GRID-BASED DFT OPTIONS
     ------------------------------
     DFTTYP=BLYP    
     NRAD  =      96     NLEB  =     302
     NRAD0 =      24     NLEB0 =     110
     SWOFF =    5.00E-03 (PURE SCF -> DFT)
     SWITCH=    3.00E-04 (COARSE -> TIGHT GRID)
     THRESH=    0.00E+00 GTHRE=    1.00E+00

 GRIMME'S EMPIRICAL DISPERSION CORRECTION= F

     $CONTRL OPTIONS
     ---------------
 SCFTYP=UHF          RUNTYP=ENERGY       EXETYP=RUN     
 MPLEVL=       0     CITYP =NONE         CCTYP =NONE         VBTYP =NONE    
 DFTTYP=BLYP         TDDFT =NONE    
 MULT  =       3     ICHARG=       0     NZVAR =       0     COORD =UNIQUE  
 PP    =NONE         RELWFN=NONE         LOCAL =NONE         NUMGRD=       F
 ISPHER=       1     NOSYM =       0     MAXIT =      30     UNITS =ANGS    
 PLTORB=       F     MOLPLT=       F     AIMPAC=       F     FRIEND=        
 NPRINT=       7     IREST =       0     GEOM  =INPUT   
 NORMF =       0     NORMP =       0     ITOL  =      20     ICUT  =       9
 INTTYP=BEST         GRDTYP=BEST         QMTTOL= 1.0E-06

     $SYSTEM OPTIONS
     ---------------
  REPLICATED MEMORY=   100000000 WORDS (ON EVERY NODE).
 DISTRIBUTED MEMDDI=           0 MILLION WORDS IN AGGREGATE,
 MEMDDI DISTRIBUTED OVER   4 PROCESSORS IS           0 WORDS/PROCESSOR.
 TOTAL MEMORY REQUESTED ON EACH PROCESSOR=   100000000 WORDS.
 TIMLIM=      525600.00 MINUTES, OR     365.0 DAYS.
 PARALL= T  BALTYP=  DLB     KDIAG=    0  COREFL= F
 MXSEQ2=     300 MXSEQ3=     150  mem10=         0

          ----------------
          PROPERTIES INPUT
          ----------------

     MOMENTS            FIELD           POTENTIAL          DENSITY
 IEMOM =       1   IEFLD =       0   IEPOT =       0   IEDEN =       0
 WHERE =COMASS     WHERE =NUCLEI     WHERE =NUCLEI     WHERE =NUCLEI  
 OUTPUT=BOTH       OUTPUT=BOTH       OUTPUT=BOTH       OUTPUT=BOTH    
 IEMINT=       0   IEFINT=       0                     IEDINT=       0
                                                       MORB  =       0
          EXTRAPOLATION IN EFFECT
          DIIS IN EFFECT
          DIIS or SOSCF will be reset if energy rises
 ORBITAL PRINTING OPTION: NPREO=     1    40     2     1

     -------------------------------
     INTEGRAL TRANSFORMATION OPTIONS
     -------------------------------
     NWORD  =            0
     CUTOFF = 1.0E-09     MPTRAN =       0
     DIRTRF =       F     AOINTS =DUP     

          ----------------------
          INTEGRAL INPUT OPTIONS
          ----------------------
 NOPK  =       1 NORDER=       0 SCHWRZ=       F

     ------------------------------------------
     THE POINT GROUP IS C1 , NAXIS= 0, ORDER= 1
     ------------------------------------------

 -- VARIATIONAL SPACE WILL BE RESTRICTED TO PURE SPHERICAL HARMONICS ONLY --
 AFTER EXCLUDING CONTAMINANT COMBINATIONS FROM THE CARTESIAN GAUSSIAN BASIS
 SET, THE NUMBER OF SPHERICAL HARMONICS KEPT IN THE VARIATION SPACE IS   38

     DIMENSIONS OF THE SYMMETRY SUBSPACES ARE
 A   =   38

 ..... DONE SETTING UP THE RUN .....
 CPU     0: STEP CPU TIME=     0.01 TOTAL CPU TIME=        0.0 (    0.0 MIN)
 TOTAL WALL CLOCK TIME=        0.0 SECONDS, CPU UTILIZATION IS  50.00%

          ********************
          1 ELECTRON INTEGRALS
          ********************
 ...... END OF ONE-ELECTRON INTEGRALS ......
 CPU     0: STEP CPU TIME=     0.00 TOTAL CPU TIME=        0.0 (    0.0 MIN)
 TOTAL WALL CLOCK TIME=        0.0 SECONDS, CPU UTILIZATION IS  20.00%

          -------------
          GUESS OPTIONS
          -------------
          GUESS =HUCKEL            NORB  =       0          NORDER=       0
          MIX   =       F          PRTMO =       F          PUNMO =       F
          TOLZ  = 1.0E-08          TOLE  = 1.0E-05
          SYMDEN=       F          PURIFY=       F

 INITIAL GUESS ORBITALS GENERATED BY HUCKEL   ROUTINE.
 HUCKEL GUESS REQUIRES     15348 WORDS.

 STATISTICS FOR GENERATION OF SYMMETRY ORBITAL -Q- MATRIX
 NUMBER OF CARTESIAN ATOMIC ORBITALS=         40
 NUMBER OF SPHERICAL CONTAMINANTS DROPPED=     2
 NUMBER OF LINEARLY DEPENDENT MOS DROPPED=     0
 TOTAL NUMBER OF MOS IN VARIATION SPACE=      38

 SYMMETRIES FOR INITIAL GUESS ORBITALS FOLLOW.  ALPHA SET(S).
     9 ORBITALS ARE OCCUPIED (    2 CORE ORBITALS).
     3=A        4=A        5=A        6=A        7=A        8=A        9=A   
    10=A       11=A       12=A       13=A       14=A       15=A       16=A   
    17=A       18=A       19=A   

 SYMMETRIES FOR INITIAL GUESS ORBITALS FOLLOW.   BETA SET(S).
     7 ORBITALS ARE OCCUPIED (    2 CORE ORBITALS).
     3=A        4=A        5=A        6=A        7=A        8=A        9=A   
    10=A       11=A       12=A       13=A       14=A       15=A       16=A   
    17=A   
 ...... END OF INITIAL ORBITAL SELECTION ......
 CPU     0: STEP CPU TIME=     0.00 TOTAL CPU TIME=        0.0 (    0.0 MIN)
 TOTAL WALL CLOCK TIME=        0.0 SECONDS, CPU UTILIZATION IS  20.00%

                    ----------------------
                    AO INTEGRAL TECHNOLOGY
                    ----------------------
     S,P,L SHELL ROTATED AXIS INTEGRALS, REPROGRAMMED BY
        KAZUYA ISHIMURA (IMS) AND JOSE SIERRA (SYNSTAR).
     S,P,D,L SHELL ROTATED AXIS INTEGRALS PROGRAMMED BY
        KAZUYA ISHIMURA (INSTITUTE FOR MOLECULAR SCIENCE).
     S,P,D,F,G SHELL TO TOTAL QUARTET ANGULAR MOMENTUM SUM 5,
        ERIC PROGRAM BY GRAHAM FLETCHER (ELORET AND NASA ADVANCED
        SUPERCOMPUTING DIVISION, AMES RESEARCH CENTER).
     S,P,D,F,G,L SHELL GENERAL RYS QUADRATURE PROGRAMMED BY
        MICHEL DUPUIS (PACIFIC NORTHWEST NATIONAL LABORATORY).

          --------------------
          2 ELECTRON INTEGRALS
          --------------------

 THE -PK- OPTION IS OFF, THE INTEGRALS ARE NOT IN SUPERMATRIX FORM.
 STORING   15000 INTEGRALS/RECORD ON DISK, USING 12 BYTES/INTEGRAL.
 TWO ELECTRON INTEGRAL EVALUATION REQUIRES   90567 WORDS OF MEMORY.
 II,JST,KST,LST =  1  1  1  1 NREC =         1 INTLOC =    1
 II,JST,KST,LST =  2  1  1  1 NREC =         1 INTLOC =    2
 II,JST,KST,LST =  3  1  1  1 NREC =         1 INTLOC =    2
 II,JST,KST,LST =  4  1  1  1 NREC =         1 INTLOC =    2
 II,JST,KST,LST =  5  1  1  1 NREC =         1 INTLOC =   47
 II,JST,KST,LST =  6  1  1  1 NREC =         1 INTLOC =   47
 II,JST,KST,LST =  7  1  1  1 NREC =         1 INTLOC =  707
 II,JST,KST,LST =  8  1  1  1 NREC =         1 INTLOC =  707
 II,JST,KST,LST =  9  1  1  1 NREC =         1 INTLOC = 1056
 II,JST,KST,LST = 10  1  1  1 NREC =         1 INTLOC = 2207
 II,JST,KST,LST = 11  1  1  1 NREC =         1 INTLOC = 2448
 II,JST,KST,LST = 12  1  1  1 NREC =         1 INTLOC = 3175
 II,JST,KST,LST = 13  1  1  1 NREC =         1 INTLOC = 3175
 II,JST,KST,LST = 14  1  1  1 NREC =         1 INTLOC = 8028
 II,JST,KST,LST = 15  1  1  1 NREC =         1 INTLOC =12233
 II,JST,KST,LST = 16  1  1  1 NREC =         2 INTLOC =12345
 II,JST,KST,LST = 17  1  1  1 NREC =         2 INTLOC =14508
 II,JST,KST,LST = 18  1  1  1 NREC =         3 INTLOC = 1050
 TOTAL NUMBER OF NONZERO TWO-ELECTRON INTEGRALS =              175065
         14 INTEGRAL RECORDS WERE STORED ON DISK FILE  8.
  ...... END OF TWO-ELECTRON INTEGRALS .....
 CPU     0: STEP CPU TIME=     0.03 TOTAL CPU TIME=        0.0 (    0.0 MIN)
 TOTAL WALL CLOCK TIME=        0.1 SECONDS, CPU UTILIZATION IS  50.00%

          ---------------------------
               U-BLYP SCF CALCULATION
          ---------------------------

     NUCLEAR ENERGY =        30.2459057494
     MAXIT = 30     NPUNCH=  2     MULT=  3
     EXTRAP=T  DAMP=F  SHIFT=F  RSTRCT=F  DIIS=T  SOSCF=F
         DENSITY MATRIX CONVERGENCE THRESHOLD=  1.00E-05
     COARSE -> FINE DFT GRID SWITCH THRESHOLD=  3.00E-04 (SWITCH IN $DFT)
                   HF -> DFT SWITCH THRESHOLD=  5.00E-03 (SWOFF IN $DFT)
     MEMORY REQUIRED FOR UHF/ROHF ITERS=    212812 WORDS.

 DFT CODE IS SWITCHING FROM THE FINE GRID NRAD= 96,  NLEB=  302
                      TO THE COARSE GRID NRAD0= 24, NLEB0=  110

     EXCHANGE FUNCTIONAL   =BECKE88   
     CORRELATION FUNCTIONAL=LYP88     
     DFT THRESHOLD         =.345E-07
     GRID CHANGE THRESHOLD =.300E-03
 FOR AN EULER-MACLAURIN QUADRATURE USING  96 RADIAL POINTS:
 SMALLEST GAUSSIAN PRIMITIVE EXPONENT=        0.1220000000 OF TYPE -S-
 ON ATOM NUMBER   2 HAS RADIAL NORMALIZATION=  1.000000
  LARGEST GAUSSIAN PRIMITIVE EXPONENT=    11720.0000000000 OF TYPE -S-
 ON ATOM NUMBER   3 HAS RADIAL NORMALIZATION=  1.000000
 DFT IS SWITCHED OFF, PERFORMING PURE SCF UNTIL SWOFF THRESHOLD IS REACHED.

 ITER EX      TOTAL ENERGY        E CHANGE  DENSITY CHANGE    DIIS ERROR
   1  0     -113.4641069330  -113.4641069330   0.143514482   0.627566246
          * * *   INITIATING DIIS PROCEDURE   * * *
   2  1     -113.7629900048    -0.2988830718   0.095585187   0.064195168
   3  2     -113.7840050496    -0.0210150448   0.026874402   0.027762531
   4  3     -113.7887488919    -0.0047438423   0.024426398   0.015750292
   5  4     -113.7901392004    -0.0013903085   0.014163490   0.006665702
   6  5     -113.7905394600    -0.0004002596   0.006264973   0.003037006
   7  6     -113.7905916245    -0.0000521644   0.003510495   0.001366184
 CONVERGED TO SWOFF, SO DFT CALCULATION IS NOW SWITCHED ON.
          * * *   INITIATING DIIS PROCEDURE   * * *
   8  7     -114.3284098846    -0.5378182602   0.108481813   0.080159635
   9  8     -114.3492089734    -0.0207990888   0.059216875   0.028871720
  10  9     -114.3489809867     0.0002279867   0.032562077   0.033372052
  11 10     -114.3506708134    -0.0016898267   0.010693044   0.013116659
  12 11     -114.3510417163    -0.0003709028   0.002899099   0.002154764
  13 12     -114.3510554760    -0.0000137598   0.000428266   0.000334317
  14 13     -114.3510558543    -0.0000003782   0.000107269   0.000095290
 DFT CODE IS SWITCHING BACK TO THE FINE GRID
          * * *   INITIATING DIIS PROCEDURE   * * *
  15 14     -114.3515708474    -0.0005149931   0.002280495   0.001778378
  16 15     -114.3515749618    -0.0000041144   0.001634074   0.001011297
  17 16     -114.3515732910     0.0000016708   0.000941065   0.001257791
  18 17     -114.3515767381    -0.0000034472   0.000097519   0.000096381
  19 18     -114.3515767638    -0.0000000257   0.000023173   0.000019676
  20 19     -114.3515767649    -0.0000000011   0.000005878   0.000005659
  21 20     -114.3515767649    -0.0000000001   0.000000759   0.000000641

          -----------------
          DENSITY CONVERGED
          -----------------
     TIME TO FORM FOCK OPERATORS=       1.1 SECONDS (       0.1 SEC/ITER)
     TIME TO SOLVE SCF EQUATIONS=       0.0 SECONDS (       0.0 SEC/ITER)

 FINAL U-BLYP ENERGY IS     -114.3515767649 AFTER  21 ITERATIONS
 DFT EXCHANGE + CORRELATION ENERGY =       -14.6980729608
 TOTAL ELECTRON NUMBER             =        15.9999825219

          --------------------
          SPIN SZ   =    1.000
          S-SQUARED =    2.003
          --------------------

  ----- ALPHA SET ----- 

          ------------
          EIGENVECTORS
          ------------

                      1          2          3          4          5
                  -18.8700    -9.9547    -0.9704    -0.5949    -0.4588
                     A          A          A          A          A   
    1  C  1  S    0.000420   1.007785  -0.017561  -0.018808  -0.001993
    2  C  1  S    0.000660   0.020029   0.172856   0.350611  -0.026737
    3  C  1  S    0.005976  -0.010757   0.064489   0.197107  -0.038598
    4  C  1  X    0.000059   0.000758  -0.001935   0.037367   0.401006
    5  C  1  Y    0.000273  -0.000351   0.153730  -0.143147  -0.008297
    6  C  1  Z    0.000000   0.000000   0.000000   0.000000   0.000000
    7  C  1  X   -0.000082  -0.000441  -0.002749  -0.006009   0.096742
    8  C  1  Y    0.003731   0.002720   0.017874  -0.055290   0.007518
    9  C  1  Z    0.000000   0.000000   0.000000   0.000000   0.000000
   10  C  1 XX    0.001202   0.001763  -0.021487   0.003537   0.001944
   11  C  1 YY   -0.000821   0.000760   0.031122  -0.015568  -0.001884
   12  C  1 ZZ   -0.000382  -0.002523  -0.009635   0.012031  -0.000060
   13  C  1 XY    0.000110  -0.000214  -0.001389  -0.001206   0.009624
   14  C  1 XZ    0.000000   0.000000   0.000000   0.000000   0.000000
   15  C  1 YZ    0.000000   0.000000   0.000000   0.000000   0.000000
   16  H  2  S   -0.000987  -0.003396   0.038575   0.224858  -0.263105
   17  H  2  S    0.000006   0.002840   0.001517   0.029652  -0.085980
   18  H  2  X   -0.000028  -0.002249   0.006935   0.025211  -0.006735
   19  H  2  Y   -0.000874  -0.001803   0.008913   0.009735  -0.011715
   20  H  2  Z    0.000000   0.000000   0.000000   0.000000   0.000000
   21  O  3  S    1.004459   0.000622  -0.000964  -0.005426  -0.000301
   22  O  3  S    0.010632   0.001083   0.447484  -0.193698   0.019204
   23  O  3  S   -0.014309  -0.004451   0.412338  -0.213451   0.034351
   24  O  3  X    0.000022  -0.000018   0.002784   0.014885   0.352354
   25  O  3  Y   -0.001736   0.000652  -0.142222  -0.132534   0.049579
   26  O  3  Z    0.000000   0.000000   0.000000   0.000000   0.000000
   27  O  3  X   -0.000083   0.000009   0.001409   0.011005   0.205200
   28  O  3  Y    0.003796   0.003607  -0.036475  -0.090151   0.025282
   29  O  3  Z    0.000000   0.000000   0.000000   0.000000   0.000000
   30  O  3 XX    0.000207   0.000587   0.004407  -0.008852   0.001790
   31  O  3 YY   -0.000263  -0.001441   0.005631   0.013065  -0.002372
   32  O  3 ZZ    0.000057   0.000854  -0.010039  -0.004213   0.000582
   33  O  3 XY    0.000027   0.000019  -0.000124  -0.001846  -0.018877
   34  O  3 XZ    0.000000   0.000000   0.000000   0.000000   0.000000
   35  O  3 YZ    0.000000   0.000000   0.000000   0.000000   0.000000
   36  H  4  S   -0.001069  -0.004714   0.047126   0.285682   0.248010
   37  H  4  S    0.000052   0.004021   0.003802   0.049951   0.087249
   38  H  4  X   -0.000062   0.002472  -0.007005  -0.027803  -0.006729
   39  H  4  Y   -0.000881  -0.001765   0.009319   0.011950   0.009183
   40  H  4  Z    0.000000   0.000000   0.000000   0.000000   0.000000

                      6          7          8          9         10
                   -0.4084    -0.3543    -0.3007    -0.1135     0.0651
                     A          A          A          A          A   
    1  C  1  S   -0.010708   0.000000   0.001318   0.000000  -0.029828
    2  C  1  S   -0.049151   0.000000   0.001348   0.000000   0.196763
    3  C  1  S   -0.015361   0.000000   0.019793   0.000000   1.904625
    4  C  1  X   -0.009176   0.000000  -0.230757   0.000000  -0.082820
    5  C  1  Y   -0.368383   0.000000  -0.006781   0.000000  -0.179874
    6  C  1  Z    0.000000   0.308270   0.000000   0.564246   0.000000
    7  C  1  X   -0.013023   0.000000   0.002876   0.000000  -0.145421
    8  C  1  Y   -0.043918   0.000000  -0.002896   0.000000  -0.533919
    9  C  1  Z    0.000000   0.179763   0.000000   0.508248   0.000000
   10  C  1 XX    0.013928   0.000000  -0.000678   0.000000   0.002365
   11  C  1 YY   -0.021591   0.000000   0.001097   0.000000  -0.002322
   12  C  1 ZZ    0.007663   0.000000  -0.000419   0.000000  -0.000043
   13  C  1 XY   -0.001549   0.000000   0.044341   0.000000  -0.001886
   14  C  1 XZ    0.000000  -0.000202   0.000000   0.001192   0.000000
   15  C  1 YZ    0.000000   0.030334   0.000000  -0.025575   0.000000
   16  H  2  S    0.141663   0.000000   0.258613   0.000000  -0.088423
   17  H  2  S    0.073028   0.000000   0.172591   0.000000  -1.512380
   18  H  2  X    0.011798   0.000000   0.000997   0.000000   0.008067
   19  H  2  Y   -0.005398   0.000000   0.006515   0.000000   0.001641
   20  H  2  Z    0.000000   0.008963   0.000000   0.025980   0.000000
   21  O  3  S   -0.006614   0.000000   0.000060   0.000000  -0.001209
   22  O  3  S    0.129898   0.000000  -0.000322   0.000000   0.004870
   23  O  3  S    0.268773   0.000000  -0.002663   0.000000   0.051963
   24  O  3  X   -0.041422   0.000000   0.591336   0.000000   0.026149
   25  O  3  Y    0.527635   0.000000   0.014661   0.000000   0.079189
   26  O  3  Z    0.000000   0.568693   0.000000  -0.404476   0.000000
   27  O  3  X   -0.022755   0.000000   0.375556   0.000000   0.038672
   28  O  3  Y    0.284006   0.000000   0.010863   0.000000   0.083740
   29  O  3  Z    0.000000   0.337474   0.000000  -0.356452   0.000000
   30  O  3 XX    0.013112   0.000000   0.000380   0.000000  -0.006011
   31  O  3 YY   -0.020780   0.000000  -0.000525   0.000000   0.005267
   32  O  3 ZZ    0.007669   0.000000   0.000145   0.000000   0.000743
   33  O  3 XY    0.001855   0.000000  -0.007393   0.000000   0.002079
   34  O  3 XZ    0.000000   0.000373   0.000000   0.000181   0.000000
   35  O  3 YZ    0.000000  -0.020314   0.000000  -0.007422   0.000000
   36  H  4  S    0.120310   0.000000  -0.240275   0.000000  -0.063944
   37  H  4  S    0.073576   0.000000  -0.158200   0.000000  -1.184269
   38  H  4  X   -0.011020   0.000000   0.001239   0.000000  -0.006490
   39  H  4  Y   -0.006462   0.000000  -0.008612   0.000000  -0.002800
   40  H  4  Z    0.000000   0.009539   0.000000   0.026780   0.000000

                     11         12         13         14         15
                    0.1212     0.1525     0.4244     0.4296     0.4822
                     A          A          A          A          A   
    1  C  1  S    0.003339  -0.025182   0.000000   0.064269   0.103224
    2  C  1  S   -0.013926   0.100999   0.000000  -0.036677   0.286731
    3  C  1  S   -0.373177   0.994582   0.000000  -0.628404   0.011006
    4  C  1  X   -0.416252   0.021860   0.000000   0.059361  -0.097010
    5  C  1  Y    0.022756   0.243632   0.000000  -0.256521   0.664304
    6  C  1  Z    0.000000   0.000000  -0.968319   0.000000   0.000000
    7  C  1  X   -1.273675   0.046489   0.000000  -0.098089   1.174978
    8  C  1  Y    0.150819   1.391751   0.000000   0.692932  -0.838664
    9  C  1  Z    0.000000   0.000000   1.144012   0.000000   0.000000
   10  C  1 XX   -0.006490   0.009110   0.000000   0.174071   0.119168
   11  C  1 YY   -0.000160  -0.020427   0.000000   0.051396  -0.141014
   12  C  1 ZZ    0.006650   0.011317   0.000000  -0.225467   0.021847
   13  C  1 XY   -0.003827   0.001050   0.000000   0.039905   0.096675
   14  C  1 XZ    0.000000   0.000000   0.003901   0.000000   0.000000
   15  C  1 YZ    0.000000   0.000000  -0.043931   0.000000   0.000000
   16  H  2  S   -0.025996  -0.026985   0.000000   0.902170   0.600161
   17  H  2  S   -1.572746   0.224348   0.000000  -0.450294  -0.010662
   18  H  2  X    0.006963  -0.016403   0.000000  -0.106699  -0.048142
   19  H  2  Y    0.007283   0.029906   0.000000  -0.029163  -0.049304
   20  H  2  Z    0.000000   0.000000  -0.022229   0.000000   0.000000
   21  O  3  S    0.001082   0.026569   0.000000   0.042277  -0.029208
   22  O  3  S   -0.016950  -0.161115   0.000000   0.138416  -0.079384
   23  O  3  S   -0.098244  -1.274227   0.000000  -0.187104   0.450703
   24  O  3  X    0.075794  -0.008355   0.000000  -0.044681  -0.279363
   25  O  3  Y    0.012311   0.277555   0.000000  -0.185517   0.305670
   26  O  3  Z    0.000000   0.000000  -0.050581   0.000000   0.000000
   27  O  3  X    0.197678  -0.022723   0.000000   0.004638  -0.091510
   28  O  3  Y    0.033845   0.621253   0.000000  -0.080593  -0.034500
   29  O  3  Z    0.000000   0.000000  -0.128016   0.000000   0.000000
   30  O  3 XX    0.000783   0.002284   0.000000   0.021406  -0.032064
   31  O  3 YY   -0.001666  -0.009446   0.000000  -0.023795   0.061677
   32  O  3 ZZ    0.000883   0.007162   0.000000   0.002389  -0.029613
   33  O  3 XY    0.011596  -0.000541   0.000000  -0.002432  -0.016608
   34  O  3 XZ    0.000000   0.000000  -0.000503   0.000000   0.000000
   35  O  3 YZ    0.000000   0.000000   0.023784   0.000000   0.000000
   36  H  4  S   -0.027507  -0.017878   0.000000   0.601372  -0.403402
   37  H  4  S    2.183147  -0.021501   0.000000   0.110093  -0.616033
   38  H  4  X    0.003771   0.015906   0.000000   0.096598   0.048857
   39  H  4  Y   -0.002186   0.028727   0.000000  -0.007543   0.078254
   40  H  4  Z    0.000000   0.000000  -0.044098   0.000000   0.000000

                     16         17         18         19         20
                    0.5015     0.6069     0.7603     0.8254     0.8799
                     A          A          A          A          A   
    1  C  1  S   -0.149769   0.117749  -0.500496  -0.561258   0.000000
    2  C  1  S   -0.341340   0.243112  -1.179233  -1.240331   0.000000
    3  C  1  S    0.626289  -0.477562   3.873596   1.602136   0.000000
    4  C  1  X   -0.180723  -0.826690  -0.070103  -0.008079   0.000000
    5  C  1  Y   -0.597086  -0.018747   0.446309  -0.248260   0.000000
    6  C  1  Z    0.000000   0.000000   0.000000   0.000000   0.039551
    7  C  1  X    1.480112   1.974901   0.262187   0.118920   0.000000
    8  C  1  Y    0.685729   0.083569  -0.488376  -0.575075   0.000000
    9  C  1  Z    0.000000   0.000000   0.000000   0.000000  -0.317754
   10  C  1 XX   -0.165831   0.067618   0.024417   0.174987   0.000000
   11  C  1 YY    0.143286  -0.032154   0.151222  -0.311331   0.000000
   12  C  1 ZZ    0.022546  -0.035464  -0.175638   0.136344   0.000000
   13  C  1 XY    0.059758  -0.322662  -0.075242  -0.017591   0.000000
   14  C  1 XZ    0.000000   0.000000   0.000000   0.000000   0.115124
   15  C  1 YZ    0.000000   0.000000   0.000000   0.000000   0.073095
   16  H  2  S    0.225491  -0.211083  -0.043067  -0.048997   0.000000
   17  H  2  S    0.736765   1.865523  -0.970094  -0.556211   0.000000
   18  H  2  X    0.101210   0.149570  -0.123987  -0.093522   0.000000
   19  H  2  Y   -0.062627   0.137543  -0.121174   0.006664   0.000000
   20  H  2  Z    0.000000   0.000000   0.000000   0.000000  -0.162575
   21  O  3  S    0.020927   0.004701  -0.030190   0.061225   0.000000
   22  O  3  S    0.045492   0.022624  -0.158495   0.243381   0.000000
   23  O  3  S   -0.465290   0.094333  -0.558926   0.243389   0.000000
   24  O  3  X   -0.286036  -0.011005   0.022110  -0.013159   0.000000
   25  O  3  Y   -0.279156   0.044644  -0.405334   0.494527   0.000000
   26  O  3  Z    0.000000   0.000000   0.000000   0.000000  -0.906178
   27  O  3  X   -0.103111  -0.067886  -0.023166   0.028669   0.000000
   28  O  3  Y    0.102540  -0.086424   0.985966  -1.149616   0.000000
   29  O  3  Z    0.000000   0.000000   0.000000   0.000000   1.119880
   30  O  3 XX    0.028059  -0.002186   0.000008   0.025287   0.000000
   31  O  3 YY   -0.059107   0.009578  -0.016391  -0.051526   0.000000
   32  O  3 ZZ    0.031048  -0.007391   0.016383   0.026238   0.000000
   33  O  3 XY   -0.010750   0.030681   0.006955   0.003808   0.000000
   34  O  3 XZ    0.000000   0.000000   0.000000   0.000000   0.006493
   35  O  3 YZ    0.000000   0.000000   0.000000   0.000000   0.012329
   36  H  4  S   -0.689277   0.370543   0.019817  -0.043832   0.000000
   37  H  4  S   -0.497317  -1.701241  -1.587890  -0.822759   0.000000
   38  H  4  X   -0.067665   0.181639   0.191793   0.108472   0.000000
   39  H  4  Y    0.040300  -0.107129  -0.155886  -0.018743   0.000000
   40  H  4  Z    0.000000   0.000000   0.000000   0.000000  -0.040761

                     21         22         23         24         25
                    0.8966     0.9394     1.1179     1.3903     1.4239
                     A          A          A          A          A   
    1  C  1  S    0.000000  -0.013303   0.000000   0.156759   0.126514
    2  C  1  S    0.000000  -0.026214   0.000000   0.292548   0.257718
    3  C  1  S    0.000000   0.135397   0.000000  -0.528611  -0.904643
    4  C  1  X    0.000000  -0.226157   0.000000  -0.032631  -0.014232
    5  C  1  Y    0.000000  -0.009312   0.000000   0.033478   0.163233
    6  C  1  Z   -0.035331   0.000000   0.026465   0.000000   0.000000
    7  C  1  X    0.000000   1.507493   0.000000   1.177513  -0.575823
    8  C  1  Y    0.000000   0.031088   0.000000   0.420623   0.921953
    9  C  1  Z    0.091341   0.000000   0.443053   0.000000   0.000000
   10  C  1 XX    0.000000  -0.007027   0.000000  -0.442058  -0.468671
   11  C  1 YY    0.000000   0.005342   0.000000  -0.094675   0.283171
   12  C  1 ZZ    0.000000   0.001685   0.000000   0.536733   0.185501
   13  C  1 XY    0.000000   0.335133   0.000000  -0.235287  -0.040296
   14  C  1 XZ    0.633210   0.000000  -0.034153   0.000000   0.000000
   15  C  1 YZ    0.014473   0.000000   0.874757   0.000000   0.000000
   16  H  2  S    0.000000   0.106302   0.000000   0.811624   0.353867
   17  H  2  S    0.000000   0.695776   0.000000   0.515953  -0.028679
   18  H  2  X    0.000000   0.011422   0.000000  -0.455260   0.301507
   19  H  2  Y    0.000000  -0.045102   0.000000   0.276101  -0.706267
   20  H  2  Z   -0.328622   0.000000  -0.236453   0.000000   0.000000
   21  O  3  S    0.000000   0.000656   0.000000   0.132305  -0.067281
   22  O  3  S    0.000000   0.001505   0.000000   0.304835  -0.201088
   23  O  3  S    0.000000  -0.010686   0.000000  -0.410635  -0.317620
   24  O  3  X    0.000000   0.809752   0.000000   0.134585  -0.034405
   25  O  3  Y    0.000000   0.020376   0.000000  -0.050372   0.401472
   26  O  3  Z    0.171002   0.000000   0.103463   0.000000   0.000000
   27  O  3  X    0.000000  -1.464972   0.000000  -0.360312   0.174671
   28  O  3  Y    0.000000  -0.034864   0.000000   0.096115  -0.268333
   29  O  3  Z   -0.225337   0.000000  -0.657651   0.000000   0.000000
   30  O  3 XX    0.000000   0.002412   0.000000  -0.072429  -0.040600
   31  O  3 YY    0.000000  -0.003191   0.000000   0.032665  -0.011333
   32  O  3 ZZ    0.000000   0.000779   0.000000   0.039764   0.051933
   33  O  3 XY    0.000000  -0.065571   0.000000  -0.010561   0.038427
   34  O  3 XZ    0.038261   0.000000   0.000617   0.000000   0.000000
   35  O  3 YZ   -0.002155   0.000000  -0.129394   0.000000   0.000000
   36  H  4  S    0.000000  -0.085437   0.000000  -0.068211   0.638363
   37  H  4  S    0.000000  -0.808059   0.000000  -0.327922   0.547780
   38  H  4  X    0.000000   0.000439   0.000000  -0.310218   0.058049
   39  H  4  Y    0.000000   0.020174   0.000000  -0.453219  -0.283288
   40  H  4  Z    0.321885   0.000000  -0.234199   0.000000   0.000000

                     26         27         28         29         30
                    1.4480     1.6089     1.6351     1.6486     1.7710
                     A          A          A          A          A   
    1  C  1  S   -0.188090   0.108502   0.000000   0.080635   0.000000
    2  C  1  S   -0.296605   0.171733   0.000000   0.118941   0.000000
    3  C  1  S    0.568726  -2.032711   0.000000  -1.005713   0.000000
    4  C  1  X    0.008941  -0.026862   0.000000   0.025521   0.000000
    5  C  1  Y    0.072111  -0.410518   0.000000  -0.080548   0.000000
    6  C  1  Z    0.000000   0.000000  -0.282696   0.000000  -0.142983
    7  C  1  X    0.784613   0.114596   0.000000  -0.425880   0.000000
    8  C  1  Y   -0.169734  -1.152022   0.000000  -0.270051   0.000000
    9  C  1  Z    0.000000   0.000000  -0.358954   0.000000  -0.090997
   10  C  1 XX    0.472442   0.361965   0.000000  -0.011544   0.000000
   11  C  1 YY    0.290186  -0.889826   0.000000  -0.269276   0.000000
   12  C  1 ZZ   -0.762628   0.527862   0.000000   0.280819   0.000000
   13  C  1 XY   -0.084737  -0.274200   0.000000   0.921432   0.000000
   14  C  1 XZ    0.000000   0.000000   0.197710   0.000000  -1.012860
   15  C  1 YZ    0.000000   0.000000   0.622140   0.000000   0.155472
   16  H  2  S   -0.078707   0.265223   0.000000  -0.406862   0.000000
   17  H  2  S    0.193975  -0.006463   0.000000   0.159439   0.000000
   18  H  2  X   -0.082200  -0.002366   0.000000  -0.020134   0.000000
   19  H  2  Y    0.054267  -0.252422   0.000000   0.337518   0.000000
   20  H  2  Z    0.000000   0.000000   0.951121   0.000000  -0.567467
   21  O  3  S   -0.306344  -0.624679   0.000000  -0.233718   0.000000
   22  O  3  S   -0.735044  -1.336348   0.000000  -0.505653   0.000000
   23  O  3  S    0.635848   3.253663   0.000000   1.150058   0.000000
   24  O  3  X    0.058813   0.089690   0.000000  -0.251454   0.000000
   25  O  3  Y    0.366367  -0.284770   0.000000  -0.058215   0.000000
   26  O  3  Z    0.000000   0.000000  -0.136591   0.000000  -0.032020
   27  O  3  X   -0.220974  -0.005897   0.000000   0.113956   0.000000
   28  O  3  Y   -0.391337  -0.936565   0.000000  -0.379042   0.000000
   29  O  3  Z    0.000000   0.000000   0.077708   0.000000   0.018563
   30  O  3 XX    0.093175   0.043494   0.000000   0.004969   0.000000
   31  O  3 YY   -0.057623  -0.106230   0.000000  -0.046873   0.000000
   32  O  3 ZZ   -0.035552   0.062736   0.000000   0.041904   0.000000
   33  O  3 XY   -0.016351   0.086949   0.000000  -0.245367   0.000000
   34  O  3 XZ    0.000000   0.000000   0.038889   0.000000  -0.210534
   35  O  3 YZ    0.000000   0.000000  -0.091729   0.000000  -0.029301
   36  H  4  S   -0.616435  -0.083753   0.000000   0.744161   0.000000
   37  H  4  S   -0.455274   0.135639   0.000000   0.014646   0.000000
   38  H  4  X   -0.440099  -0.011555   0.000000   0.014860   0.000000
   39  H  4  Y   -0.445682   0.082177   0.000000  -0.572180   0.000000
   40  H  4  Z    0.000000   0.000000   0.627445   0.000000   1.029209

                     31         32         33         34         35
                    2.2228     2.3240     2.4553     2.5039     2.7814
                     A          A          A          A          A   
    1  C  1  S   -0.230932  -0.156408  -0.317841   0.000000  -0.534684
    2  C  1  S   -0.573928  -0.378852  -0.635428   0.000000  -1.154105
    3  C  1  S   -0.638400  -0.711328  -0.280124   0.000000  -1.548228
    4  C  1  X    0.524882   0.802490  -1.112943   0.000000  -0.547787
    5  C  1  Y    0.585695   0.177674   0.336052   0.000000   0.771296
    6  C  1  Z    0.000000   0.000000   0.000000  -0.025527   0.000000
    7  C  1  X    0.488202   0.656299  -0.749550   0.000000  -0.281866
    8  C  1  Y    0.547259  -0.167677   0.115637   0.000000   0.111047
    9  C  1  Z    0.000000   0.000000   0.000000  -0.010470   0.000000
   10  C  1 XX    0.379776  -0.719244   0.035043   0.000000  -1.366246
   11  C  1 YY   -0.782118   0.581785  -0.110046   0.000000   0.693516
   12  C  1 ZZ    0.402342   0.137459   0.075003   0.000000   0.672730
   13  C  1 XY   -0.323635  -0.550827   0.552632   0.000000   0.072320
   14  C  1 XZ    0.000000   0.000000   0.000000  -0.380530   0.000000
   15  C  1 YZ    0.000000   0.000000   0.000000   0.006841   0.000000
   16  H  2  S    0.811145   1.083391  -0.514263   0.000000   0.896563
   17  H  2  S    0.706805   0.545111  -0.362872   0.000000   0.151872
   18  H  2  X    1.205592   0.675470  -0.266980   0.000000   0.399058
   19  H  2  Y    0.065158   0.885021  -0.341021   0.000000   0.675941
   20  H  2  Z    0.000000   0.000000   0.000000  -0.193928   0.000000
   21  O  3  S    0.274013  -0.253997   0.051196   0.000000  -0.212862
   22  O  3  S    0.619099  -0.553514   0.121964   0.000000  -0.462178
   23  O  3  S   -0.610208   0.687545  -0.113381   0.000000   0.496928
   24  O  3  X    0.049612   0.069213  -0.069225   0.000000  -0.017343
   25  O  3  Y   -0.295495   0.231820  -0.058464   0.000000   0.222172
   26  O  3  Z    0.000000   0.000000   0.000000  -0.002684   0.000000
   27  O  3  X   -0.085637  -0.111293   0.140372   0.000000   0.073377
   28  O  3  Y    0.194397  -0.274228   0.028853   0.000000  -0.193536
   29  O  3  Z    0.000000   0.000000   0.000000   0.004332   0.000000
   30  O  3 XX    0.022232  -0.479858  -0.543072   0.000000   0.543747
   31  O  3 YY    0.023098  -0.047679  -0.012827   0.000000  -0.216177
   32  O  3 ZZ   -0.045330   0.527536   0.555900   0.000000  -0.327570
   33  O  3 XY    0.063812   0.173029  -0.260408   0.000000  -0.119725
   34  O  3 XZ    0.000000   0.000000   0.000000   0.981124   0.000000
   35  O  3 YZ    0.000000   0.000000   0.000000   0.005694   0.000000
   36  H  4  S   -0.033174  -0.213594   1.207440   0.000000   1.707438
   37  H  4  S    0.070128  -0.342470   0.673370   0.000000   0.536454
   38  H  4  X   -0.538673   0.426266  -1.087448   0.000000  -0.854819
   39  H  4  Y   -0.470173   0.261667   0.477333   0.000000   1.030950
   40  H  4  Z    0.000000   0.000000   0.000000   0.245098   0.000000

                     36         37         38
                    2.8346     3.1222     3.1750
                     A          A          A   
    1  C  1  S    0.000000  -0.013096  -0.370823
    2  C  1  S    0.000000   0.034548  -0.884161
    3  C  1  S    0.000000   0.264263  -1.148118
    4  C  1  X    0.000000  -0.600416  -0.304506
    5  C  1  Y    0.000000   0.336623  -0.520344
    6  C  1  Z    0.100344   0.000000   0.000000
    7  C  1  X    0.000000  -0.091072  -0.074266
    8  C  1  Y    0.000000   0.174754  -0.367717
    9  C  1  Z    0.136700   0.000000   0.000000
   10  C  1 XX    0.000000  -0.097657   0.058552
   11  C  1 YY    0.000000   0.159267  -0.461181
   12  C  1 ZZ    0.000000  -0.061611   0.402629
   13  C  1 XY    0.000000   1.222076   0.494913
   14  C  1 XZ   -0.033170   0.000000   0.000000
   15  C  1 YZ    0.580157   0.000000   0.000000
   16  H  2  S    0.000000  -0.686424  -0.060204
   17  H  2  S    0.000000  -0.017848   0.080462
   18  H  2  X    0.000000  -0.494978  -0.017486
   19  H  2  Y    0.000000  -0.018428   0.055214
   20  H  2  Z    0.082372   0.000000   0.000000
   21  O  3  S    0.000000   0.111129  -0.299859
   22  O  3  S    0.000000   0.215523  -0.571794
   23  O  3  S    0.000000  -0.606159   1.737560
   24  O  3  X    0.000000  -0.037310  -0.015786
   25  O  3  Y    0.000000   0.010718  -0.069264
   26  O  3  Z    0.036858   0.000000   0.000000
   27  O  3  X    0.000000  -0.339152  -0.094064
   28  O  3  Y    0.000000   0.323588  -0.970117
   29  O  3  Z   -0.324145   0.000000   0.000000
   30  O  3 XX    0.000000   0.149659  -0.491786
   31  O  3 YY    0.000000  -0.353607   1.081843
   32  O  3 ZZ    0.000000   0.203949  -0.590057
   33  O  3 XY    0.000000   0.971968   0.296430
   34  O  3 XZ   -0.009446   0.000000   0.000000
   35  O  3 YZ    1.059389   0.000000   0.000000
   36  H  4  S    0.000000   0.887008   0.678917
   37  H  4  S    0.000000   0.005909   0.161988
   38  H  4  X    0.000000  -0.574756  -0.466614
   39  H  4  Y    0.000000  -0.036685   0.091894
   40  H  4  Z    0.115094   0.000000   0.000000

  ----- BETA SET ----- 

          ------------
          EIGENVECTORS
          ------------

                      1          2          3          4          5
                  -18.8441    -9.9450    -0.9176    -0.5572    -0.4211
                     A          A          A          A          A   
    1  C  1  S    0.000351   1.007310  -0.019379  -0.021396  -0.002346
    2  C  1  S    0.000519   0.018680   0.183731   0.329815  -0.030455
    3  C  1  S    0.005439  -0.009905   0.083834   0.176972  -0.043213
    4  C  1  X    0.000056   0.000699  -0.001948   0.041509   0.434211
    5  C  1  Y    0.000130  -0.000177   0.167907  -0.159957  -0.013218
    6  C  1  Z    0.000000   0.000000   0.000000   0.000000   0.000000
    7  C  1  X   -0.000076  -0.000419  -0.003172  -0.006127   0.104465
    8  C  1  Y    0.003411   0.002668   0.025537  -0.059144   0.008716
    9  C  1  Z    0.000000   0.000000   0.000000   0.000000   0.000000
   10  C  1 XX    0.001182   0.001830  -0.020165   0.012341   0.001435
   11  C  1 YY   -0.000849   0.001050   0.036781  -0.008175  -0.002806
   12  C  1 ZZ   -0.000333  -0.002880  -0.016616  -0.004166   0.001371
   13  C  1 XY    0.000109  -0.000202  -0.001529  -0.000767   0.010873
   14  C  1 XZ    0.000000   0.000000   0.000000   0.000000   0.000000
   15  C  1 YZ    0.000000   0.000000   0.000000   0.000000   0.000000
   16  H  2  S   -0.000930  -0.003340   0.041353   0.225134  -0.298159
   17  H  2  S    0.000014   0.002680   0.001526   0.040321  -0.113667
   18  H  2  X   -0.000022  -0.002129   0.007120   0.024537  -0.008734
   19  H  2  Y   -0.000826  -0.001699   0.009329   0.008712  -0.014273
   20  H  2  Z    0.000000   0.000000   0.000000   0.000000   0.000000
   21  O  3  S    1.003972   0.000587  -0.007305  -0.003489  -0.000668
   22  O  3  S    0.009164   0.001022   0.417844  -0.195286   0.024719
   23  O  3  S   -0.013067  -0.004534   0.400952  -0.220543   0.044518
   24  O  3  X    0.000024  -0.000018   0.003196   0.012068   0.220356
   25  O  3  Y   -0.001672   0.000677  -0.153167  -0.115539   0.058397
   26  O  3  Z    0.000000   0.000000   0.000000   0.000000   0.000000
   27  O  3  X   -0.000076   0.000005   0.001560   0.010332   0.142536
   28  O  3  Y    0.003397   0.003571  -0.038621  -0.090808   0.032180
   29  O  3  Z    0.000000   0.000000   0.000000   0.000000   0.000000
   30  O  3 XX   -0.000164   0.000540  -0.009460  -0.002388   0.001212
   31  O  3 YY    0.000075  -0.001372   0.016334   0.007038  -0.002064
   32  O  3 ZZ    0.000089   0.000831  -0.006874  -0.004649   0.000852
   33  O  3 XY    0.000010   0.000018  -0.000694  -0.001556  -0.015907
   34  O  3 XZ    0.000000   0.000000   0.000000   0.000000   0.000000
   35  O  3 YZ    0.000000   0.000000   0.000000   0.000000   0.000000
   36  H  4  S   -0.001001  -0.004569   0.050990   0.293233   0.284917
   37  H  4  S    0.000061   0.003798   0.004170   0.065642   0.114705
   38  H  4  X   -0.000068   0.002308  -0.007334  -0.027471  -0.008494
   39  H  4  Y   -0.000834  -0.001643   0.009974   0.011171   0.011073
   40  H  4  Z    0.000000   0.000000   0.000000   0.000000   0.000000

                      6          7          8          9         10
                   -0.3803    -0.3027    -0.2083    -0.0458     0.0766
                     A          A          A          A          A   
    1  C  1  S   -0.010310   0.000000   0.000924   0.000000  -0.036815
    2  C  1  S   -0.054319   0.000000  -0.002605   0.000000   0.174891
    3  C  1  S   -0.019773   0.000000   0.012250   0.000000   1.917841
    4  C  1  X   -0.024110   0.000000  -0.140198   0.000000  -0.069089
    5  C  1  Y   -0.361380   0.000000   0.000174   0.000000  -0.193115
    6  C  1  Z    0.000000   0.280537   0.000000   0.522204   0.000000
    7  C  1  X   -0.016795   0.000000   0.088197   0.000000  -0.110595
    8  C  1  Y   -0.034429   0.000000   0.001563   0.000000  -0.593762
    9  C  1  Z    0.000000   0.189510   0.000000   0.562705   0.000000
   10  C  1 XX    0.014437   0.000000  -0.000617   0.000000   0.012986
   11  C  1 YY   -0.020199   0.000000   0.001191   0.000000   0.005693
   12  C  1 ZZ    0.005763   0.000000  -0.000573   0.000000  -0.018679
   13  C  1 XY   -0.001333   0.000000   0.052700   0.000000  -0.001033
   14  C  1 XZ    0.000000  -0.000637   0.000000   0.000557   0.000000
   15  C  1 YZ    0.000000   0.037689   0.000000  -0.017252   0.000000
   16  H  2  S    0.145522   0.000000   0.220302   0.000000  -0.057405
   17  H  2  S    0.084876   0.000000   0.224163   0.000000  -1.502220
   18  H  2  X    0.011804   0.000000  -0.001144   0.000000   0.003750
   19  H  2  Y   -0.005863   0.000000   0.003476   0.000000  -0.002432
   20  H  2  Z    0.000000   0.010226   0.000000   0.030869   0.000000
   21  O  3  S   -0.008392   0.000000   0.000170   0.000000  -0.003112
   22  O  3  S    0.140282   0.000000  -0.000219   0.000000   0.010544
   23  O  3  S    0.284255   0.000000  -0.002838   0.000000   0.101147
   24  O  3  X   -0.032522   0.000000   0.599148   0.000000   0.028030
   25  O  3  Y    0.517737   0.000000   0.010760   0.000000   0.062446
   26  O  3  Z    0.000000   0.552921   0.000000  -0.389341   0.000000
   27  O  3  X   -0.019243   0.000000   0.438404   0.000000   0.040747
   28  O  3  Y    0.295437   0.000000   0.009338   0.000000   0.061623
   29  O  3  Z    0.000000   0.360414   0.000000  -0.375150   0.000000
   30  O  3 XX    0.008219   0.000000   0.000440   0.000000  -0.005244
   31  O  3 YY   -0.016680   0.000000  -0.000475   0.000000   0.004975
   32  O  3 ZZ    0.008461   0.000000   0.000035   0.000000   0.000269
   33  O  3 XY    0.001836   0.000000  -0.010005   0.000000   0.001476
   34  O  3 XZ    0.000000   0.000438   0.000000   0.000172   0.000000
   35  O  3 YZ    0.000000  -0.021930   0.000000  -0.007926   0.000000
   36  H  4  S    0.102182   0.000000  -0.206739   0.000000  -0.046257
   37  H  4  S    0.075131   0.000000  -0.206278   0.000000  -1.267943
   38  H  4  X   -0.010318   0.000000  -0.001458   0.000000  -0.003563
   39  H  4  Y   -0.008201   0.000000  -0.005527   0.000000  -0.005664
   40  H  4  Z    0.000000   0.011282   0.000000   0.032381   0.000000

                     11         12         13         14         15
                    0.1297     0.1721     0.4649     0.4719     0.5035
                     A          A          A          A          A   
    1  C  1  S    0.004177  -0.032828   0.069723   0.000000  -0.127424
    2  C  1  S   -0.008624   0.088491  -0.045273   0.000000  -0.344271
    3  C  1  S   -0.344353   1.096372  -0.765687   0.000000   0.051431
    4  C  1  X   -0.413062   0.010673   0.068334   0.000000   0.072036
    5  C  1  Y    0.011816   0.200741  -0.272822   0.000000  -0.782311
    6  C  1  Z    0.000000   0.000000   0.000000  -0.995026   0.000000
    7  C  1  X   -1.286364   0.006659  -0.074533   0.000000  -0.911837
    8  C  1  Y    0.107393   1.428816   0.650106   0.000000   0.941200
    9  C  1  Z    0.000000   0.000000   0.000000   1.116039   0.000000
   10  C  1 XX   -0.006158   0.018781   0.160887   0.000000  -0.158959
   11  C  1 YY    0.000367  -0.009008   0.039629   0.000000   0.171150
   12  C  1 ZZ    0.005791  -0.009773  -0.200517   0.000000  -0.012191
   13  C  1 XY   -0.000670   0.000602   0.047504   0.000000  -0.082352
   14  C  1 XZ    0.000000   0.000000   0.000000   0.004417   0.000000
   15  C  1 YZ    0.000000   0.000000   0.000000  -0.048916   0.000000
   16  H  2  S   -0.003107  -0.005689   0.922720   0.000000  -0.530398
   17  H  2  S   -1.636822   0.109747  -0.402187   0.000000   0.116211
   18  H  2  X    0.005160  -0.018251  -0.111036   0.000000   0.069520
   19  H  2  Y    0.004343   0.028766  -0.034050   0.000000   0.033191
   20  H  2  Z    0.000000   0.000000   0.000000  -0.028547   0.000000
   21  O  3  S    0.000986   0.035181   0.043317   0.000000   0.032614
   22  O  3  S   -0.012353  -0.147821   0.156459   0.000000   0.095566
   23  O  3  S   -0.070729  -1.334412  -0.116459   0.000000  -0.503254
   24  O  3  X    0.089252  -0.005401  -0.050695   0.000000   0.207232
   25  O  3  Y    0.008249   0.262067  -0.202930   0.000000  -0.360834
   26  O  3  Z    0.000000   0.000000   0.000000  -0.052157   0.000000
   27  O  3  X    0.222560  -0.016410  -0.009298   0.000000   0.118051
   28  O  3  Y    0.022233   0.629833  -0.123545   0.000000   0.028598
   29  O  3  Z    0.000000   0.000000   0.000000  -0.109446   0.000000
   30  O  3 XX    0.000891   0.009955   0.017709   0.000000   0.032931
   31  O  3 YY   -0.001576  -0.016414  -0.021807   0.000000  -0.070763
   32  O  3 ZZ    0.000685   0.006459   0.004098   0.000000   0.037831
   33  O  3 XY    0.010084   0.000195  -0.003118   0.000000   0.012875
   34  O  3 XZ    0.000000   0.000000   0.000000  -0.000575   0.000000
   35  O  3 YZ    0.000000   0.000000   0.000000   0.027228   0.000000
   36  H  4  S   -0.046805   0.003425   0.593274   0.000000   0.251044
   37  H  4  S    2.162128  -0.030408   0.147460   0.000000   0.568947
   38  H  4  X    0.000765   0.018777   0.097300   0.000000  -0.066493
   39  H  4  Y   -0.000702   0.027193  -0.006104   0.000000  -0.069655
   40  H  4  Z    0.000000   0.000000   0.000000  -0.052406   0.000000

                     16         17         18         19         20
                    0.5240     0.6211     0.7839     0.8445     0.9152
                     A          A          A          A          A   
    1  C  1  S   -0.120318   0.115268  -0.474813  -0.581036   0.000000
    2  C  1  S   -0.259653   0.231848  -1.129609  -1.287262   0.000000
    3  C  1  S    0.599212  -0.472966   3.779121   1.726762   0.000000
    4  C  1  X   -0.233801  -0.818994  -0.060403  -0.007464   0.000000
    5  C  1  Y   -0.440749  -0.015688   0.447156  -0.240797   0.000000
    6  C  1  Z    0.000000   0.000000   0.000000   0.000000   0.050219
    7  C  1  X    1.839939   1.906409   0.231349   0.126169   0.000000
    8  C  1  Y    0.480306   0.078713  -0.440907  -0.613746   0.000000
    9  C  1  Z    0.000000   0.000000   0.000000   0.000000  -0.328914
   10  C  1 XX   -0.139437   0.071786   0.011105   0.181835   0.000000
   11  C  1 YY    0.113751  -0.035607   0.162690  -0.309873   0.000000
   12  C  1 ZZ    0.025686  -0.036178  -0.173795   0.128039   0.000000
   13  C  1 XY    0.075186  -0.332901  -0.073890  -0.018510   0.000000
   14  C  1 XZ    0.000000   0.000000   0.000000   0.000000   0.099308
   15  C  1 YZ    0.000000   0.000000   0.000000   0.000000   0.059269
   16  H  2  S    0.332391  -0.210304  -0.033358  -0.056802   0.000000
   17  H  2  S    0.829738   1.809898  -0.950688  -0.593255   0.000000
   18  H  2  X    0.096772   0.145675  -0.125496  -0.098739   0.000000
   19  H  2  Y   -0.069776   0.141710  -0.125121  -0.002521   0.000000
   20  H  2  Z    0.000000   0.000000   0.000000   0.000000  -0.157976
   21  O  3  S    0.013318   0.005393  -0.027919   0.049393   0.000000
   22  O  3  S    0.027824   0.025767  -0.159539   0.218975   0.000000
   23  O  3  S   -0.345703   0.098173  -0.590324   0.276092   0.000000
   24  O  3  X   -0.325125   0.012086   0.022094  -0.011067   0.000000
   25  O  3  Y   -0.203071   0.041316  -0.435926   0.483244   0.000000
   26  O  3  Z    0.000000   0.000000   0.000000   0.000000  -0.925638
   27  O  3  X   -0.205936  -0.067434  -0.018363   0.025526   0.000000
   28  O  3  Y    0.082113  -0.087015   1.031542  -1.128666   0.000000
   29  O  3  Z    0.000000   0.000000   0.000000   0.000000   1.120992
   30  O  3 XX    0.018385  -0.002433   0.003781   0.018585   0.000000
   31  O  3 YY   -0.043298   0.009875  -0.019290  -0.048355   0.000000
   32  O  3 ZZ    0.024913  -0.007443   0.015510   0.029769   0.000000
   33  O  3 XY   -0.012363   0.030155   0.006599   0.003489   0.000000
   34  O  3 XZ    0.000000   0.000000   0.000000   0.000000   0.005339
   35  O  3 YZ    0.000000   0.000000   0.000000   0.000000   0.012741
   36  H  4  S   -0.758302   0.399493   0.022245  -0.054157   0.000000
   37  H  4  S   -0.721519  -1.669326  -1.511747  -0.872638   0.000000
   38  H  4  X   -0.054438   0.187732   0.191020   0.115411   0.000000
   39  H  4  Y    0.053935  -0.113225  -0.158891  -0.027876   0.000000
   40  H  4  Z    0.000000   0.000000   0.000000   0.000000  -0.047644

                     21         22         23         24         25
                    0.9345     1.0015     1.1507     1.4154     1.4419
                     A          A          A          A          A   
    1  C  1  S    0.000000   0.012555   0.000000   0.111656   0.123454
    2  C  1  S    0.000000   0.025456   0.000000   0.224783   0.257809
    3  C  1  S    0.000000  -0.125228   0.000000  -0.356705  -0.841769
    4  C  1  X    0.000000   0.217798   0.000000  -0.029950  -0.014067
    5  C  1  Y    0.000000   0.005992   0.000000   0.055000   0.186225
    6  C  1  Z   -0.037695   0.000000   0.022943   0.000000   0.000000
    7  C  1  X    0.000000  -1.358140   0.000000   1.326962  -0.545742
    8  C  1  Y    0.000000  -0.028215   0.000000   0.380290   0.953127
    9  C  1  Z    0.086858   0.000000   0.441285   0.000000   0.000000
   10  C  1 XX    0.000000   0.006097   0.000000  -0.339653  -0.466620
   11  C  1 YY    0.000000  -0.006837   0.000000  -0.024066   0.313311
   12  C  1 ZZ    0.000000   0.000740   0.000000   0.363720   0.153309
   13  C  1 XY    0.000000  -0.356648   0.000000  -0.224582  -0.046056
   14  C  1 XZ    0.622963   0.000000  -0.034101   0.000000   0.000000
   15  C  1 YZ    0.018289   0.000000   0.867163   0.000000   0.000000
   16  H  2  S    0.000000  -0.055399   0.000000   0.761442   0.355459
   17  H  2  S    0.000000  -0.637875   0.000000   0.551740  -0.017241
   18  H  2  X    0.000000  -0.013560   0.000000  -0.467147   0.297257
   19  H  2  Y    0.000000   0.045307   0.000000   0.299249  -0.697740
   20  H  2  Z   -0.342380   0.000000  -0.245106   0.000000   0.000000
   21  O  3  S    0.000000  -0.000309   0.000000   0.077995  -0.055852
   22  O  3  S    0.000000  -0.000389   0.000000   0.171660  -0.181621
   23  O  3  S    0.000000   0.010216   0.000000  -0.320231  -0.403141
   24  O  3  X    0.000000  -0.844455   0.000000   0.158002  -0.035510
   25  O  3  Y    0.000000  -0.019764   0.000000   0.031218   0.423610
   26  O  3  Z    0.153379   0.000000   0.095094   0.000000   0.000000
   27  O  3  X    0.000000   1.430888   0.000000  -0.422184   0.169918
   28  O  3  Y    0.000000   0.030950   0.000000   0.028726  -0.245040
   29  O  3  Z   -0.200063   0.000000  -0.644666   0.000000   0.000000
   30  O  3 XX    0.000000  -0.002410   0.000000  -0.050759  -0.033049
   31  O  3 YY    0.000000   0.002977   0.000000   0.022606  -0.011300
   32  O  3 ZZ    0.000000  -0.000567   0.000000   0.028153   0.044349
   33  O  3 XY    0.000000   0.064178   0.000000  -0.017970   0.035760
   34  O  3 XZ    0.036726   0.000000   0.000701   0.000000   0.000000
   35  O  3 YZ   -0.001958   0.000000  -0.132137   0.000000   0.000000
   36  H  4  S    0.000000   0.033022   0.000000  -0.194959   0.617072
   37  H  4  S    0.000000   0.741575   0.000000  -0.428092   0.533021
   38  H  4  X    0.000000  -0.006245   0.000000  -0.398056   0.041273
   39  H  4  Y    0.000000  -0.017927   0.000000  -0.532592  -0.298666
   40  H  4  Z    0.330292   0.000000  -0.244034   0.000000   0.000000

                     26         27         28         29         30
                    1.4910     1.6412     1.6691     1.6763     1.8044
                     A          A          A          A          A   
    1  C  1  S    0.212974   0.109672   0.000000   0.097852   0.000000
    2  C  1  S    0.355324   0.183583   0.000000   0.150872   0.000000
    3  C  1  S   -0.649658  -1.945477   0.000000  -1.226731   0.000000
    4  C  1  X   -0.016435  -0.034193   0.000000   0.029405   0.000000
    5  C  1  Y   -0.059552  -0.389775   0.000000  -0.117815   0.000000
    6  C  1  Z    0.000000   0.000000  -0.295956   0.000000   0.145618
    7  C  1  X   -0.542500   0.164076   0.000000  -0.425518   0.000000
    8  C  1  Y    0.272466  -1.068438   0.000000  -0.369241   0.000000
    9  C  1  Z    0.000000   0.000000  -0.355096   0.000000   0.088471
   10  C  1 XX   -0.580806   0.345887   0.000000   0.018586   0.000000
   11  C  1 YY   -0.279589  -0.858552   0.000000  -0.365728   0.000000
   12  C  1 ZZ    0.860395   0.512665   0.000000   0.347143   0.000000
   13  C  1 XY    0.021425  -0.372523   0.000000   0.889671   0.000000
   14  C  1 XZ    0.000000   0.000000   0.196084   0.000000   1.026498
   15  C  1 YZ    0.000000   0.000000   0.629461   0.000000  -0.154238
   16  H  2  S    0.247496   0.323824   0.000000  -0.371897   0.000000
   17  H  2  S   -0.092031  -0.008374   0.000000   0.162018   0.000000
   18  H  2  X   -0.003336   0.001953   0.000000  -0.006716   0.000000
   19  H  2  Y   -0.009735  -0.306491   0.000000   0.304906   0.000000
   20  H  2  Z    0.000000   0.000000   0.944304   0.000000   0.571050
   21  O  3  S    0.328240  -0.591132   0.000000  -0.291800   0.000000
   22  O  3  S    0.783531  -1.267069   0.000000  -0.630952   0.000000
   23  O  3  S   -0.736191   3.072916   0.000000   1.457691   0.000000
   24  O  3  X   -0.033062   0.125695   0.000000  -0.259881   0.000000
   25  O  3  Y   -0.341152  -0.274579   0.000000  -0.090907   0.000000
   26  O  3  Z    0.000000   0.000000  -0.141199   0.000000   0.032364
   27  O  3  X    0.152662  -0.025203   0.000000   0.126348   0.000000
   28  O  3  Y    0.388573  -0.879000   0.000000  -0.462951   0.000000
   29  O  3  Z    0.000000   0.000000   0.077826   0.000000  -0.018282
   30  O  3 XX   -0.110169   0.036542   0.000000   0.007657   0.000000
   31  O  3 YY    0.067349  -0.101445   0.000000  -0.057517   0.000000
   32  O  3 ZZ    0.042819   0.064903   0.000000   0.049860   0.000000
   33  O  3 XY    0.016414   0.105838   0.000000  -0.220463   0.000000
   34  O  3 XZ    0.000000   0.000000   0.036366   0.000000   0.196927
   35  O  3 YZ    0.000000   0.000000  -0.094801   0.000000   0.029027
   36  H  4  S    0.589860  -0.146906   0.000000   0.737846   0.000000
   37  H  4  S    0.390398   0.150227   0.000000   0.042065   0.000000
   38  H  4  X    0.368767  -0.026862   0.000000   0.020358   0.000000
   39  H  4  Y    0.353535   0.122623   0.000000  -0.564038   0.000000
   40  H  4  Z    0.000000   0.000000   0.629279   0.000000  -1.025463

                     31         32         33         34         35
                    2.2463     2.3688     2.5103     2.5905     2.8241
                     A          A          A          A          A   
    1  C  1  S   -0.239892  -0.112131  -0.374704   0.000000  -0.514977
    2  C  1  S   -0.593161  -0.288682  -0.762395   0.000000  -1.115836
    3  C  1  S   -0.628309  -0.690796  -0.478569   0.000000  -1.515536
    4  C  1  X    0.529041   0.958401  -1.024706   0.000000  -0.513852
    5  C  1  Y    0.588241   0.152100   0.435468   0.000000   0.716906
    6  C  1  Z    0.000000   0.000000   0.000000  -0.024471   0.000000
    7  C  1  X    0.490985   0.756780  -0.660451   0.000000  -0.258633
    8  C  1  Y    0.548094  -0.182997   0.102770   0.000000   0.093292
    9  C  1  Z    0.000000   0.000000   0.000000  -0.009992   0.000000
   10  C  1 XX    0.368970  -0.778466  -0.215070   0.000000  -1.309999
   11  C  1 YY   -0.773180   0.642580   0.078219   0.000000   0.640477
   12  C  1 ZZ    0.404210   0.135886   0.136850   0.000000   0.669522
   13  C  1 XY   -0.334613  -0.650654   0.489524   0.000000   0.078725
   14  C  1 XZ    0.000000   0.000000   0.000000  -0.365876   0.000000
   15  C  1 YZ    0.000000   0.000000   0.000000   0.004673   0.000000
   16  H  2  S    0.826119   1.191310  -0.279147   0.000000   0.868522
   17  H  2  S    0.704440   0.588087  -0.265175   0.000000   0.152627
   18  H  2  X    1.213677   0.711951  -0.147863   0.000000   0.385248
   19  H  2  Y    0.074802   0.951504  -0.130527   0.000000   0.651076
   20  H  2  Z    0.000000   0.000000   0.000000  -0.183860   0.000000
   21  O  3  S    0.277543  -0.272954  -0.007508   0.000000  -0.211179
   22  O  3  S    0.629703  -0.603139  -0.012860   0.000000  -0.453157
   23  O  3  S   -0.621455   0.706850  -0.000430   0.000000   0.532977
   24  O  3  X    0.052619   0.082790  -0.062097   0.000000  -0.016399
   25  O  3  Y   -0.294038   0.256325   0.008794   0.000000   0.208067
   26  O  3  Z    0.000000   0.000000   0.000000  -0.002631   0.000000
   27  O  3  X   -0.085840  -0.126724   0.121007   0.000000   0.064323
   28  O  3  Y    0.193291  -0.270086  -0.008480   0.000000  -0.215095
   29  O  3  Z    0.000000   0.000000   0.000000   0.004830   0.000000
   30  O  3 XX   -0.002497  -0.346868  -0.559473   0.000000   0.596967
   31  O  3 YY    0.029950  -0.071064  -0.059272   0.000000  -0.182110
   32  O  3 ZZ   -0.027453   0.417932   0.618744   0.000000  -0.414857
   33  O  3 XY    0.060575   0.198411  -0.221551   0.000000  -0.098650
   34  O  3 XZ    0.000000   0.000000   0.000000   0.984123   0.000000
   35  O  3 YZ    0.000000   0.000000   0.000000   0.004074   0.000000
   36  H  4  S   -0.031952  -0.363353   1.312873   0.000000   1.640510
   37  H  4  S    0.068752  -0.430602   0.640576   0.000000   0.502329
   38  H  4  X   -0.539024   0.587335  -1.064728   0.000000  -0.812199
   39  H  4  Y   -0.455685   0.227022   0.600512   0.000000   0.973203
   40  H  4  Z    0.000000   0.000000   0.000000   0.230900   0.000000

                     36         37         38
                    2.8705     3.1751     3.2167
                     A          A          A   
    1  C  1  S    0.000000   0.026652  -0.360673
    2  C  1  S    0.000000   0.125741  -0.855439
    3  C  1  S    0.000000   0.370842  -1.083885
    4  C  1  X    0.000000  -0.540709  -0.338756
    5  C  1  Y    0.000000   0.374742  -0.500105
    6  C  1  Z    0.101500   0.000000   0.000000
    7  C  1  X    0.000000  -0.066524  -0.071187
    8  C  1  Y    0.000000   0.206349  -0.355971
    9  C  1  Z    0.135456   0.000000   0.000000
   10  C  1 XX    0.000000  -0.099974   0.072190
   11  C  1 YY    0.000000   0.197658  -0.448925
   12  C  1 ZZ    0.000000  -0.097684   0.376735
   13  C  1 XY    0.000000   1.144135   0.591314
   14  C  1 XZ   -0.033628   0.000000   0.000000
   15  C  1 YZ    0.584937   0.000000   0.000000
   16  H  2  S    0.000000  -0.657601  -0.131062
   17  H  2  S    0.000000  -0.015951   0.076860
   18  H  2  X    0.000000  -0.476458  -0.064807
   19  H  2  Y    0.000000  -0.018523   0.045939
   20  H  2  Z    0.082964   0.000000   0.000000
   21  O  3  S    0.000000   0.140170  -0.291426
   22  O  3  S    0.000000   0.274267  -0.561995
   23  O  3  S    0.000000  -0.762209   1.673332
   24  O  3  X    0.000000  -0.035414  -0.018903
   25  O  3  Y    0.000000   0.017006  -0.070324
   26  O  3  Z    0.036482   0.000000   0.000000
   27  O  3  X    0.000000  -0.328784  -0.125277
   28  O  3  Y    0.000000   0.408550  -0.931194
   29  O  3  Z   -0.323961   0.000000   0.000000
   30  O  3 XX    0.000000   0.204876  -0.505026
   31  O  3 YY    0.000000  -0.449083   1.049109
   32  O  3 ZZ    0.000000   0.244207  -0.544083
   33  O  3 XY    0.000000   0.950850   0.388724
   34  O  3 XZ   -0.007629   0.000000   0.000000
   35  O  3 YZ    1.058671   0.000000   0.000000
   36  H  4  S    0.000000   0.786090   0.713944
   37  H  4  S    0.000000  -0.021130   0.145981
   38  H  4  X    0.000000  -0.504085  -0.492434
   39  H  4  Y    0.000000  -0.053224   0.071525
   40  H  4  Z    0.115900   0.000000   0.000000
 ...... END OF UHF CALCULATION ......
 CPU     0: STEP CPU TIME=     1.10 TOTAL CPU TIME=        1.1 (    0.0 MIN)
 TOTAL WALL CLOCK TIME=        1.8 SECONDS, CPU UTILIZATION IS  64.04%

     ---------------------------------------------------------------------
     PROPERTIES FOR THE BLYP     DFT FUNCTIONAL (UHF  TYPE) DENSITY MATRIX
     ---------------------------------------------------------------------

          -----------------
          ENERGY COMPONENTS
          -----------------

         WAVEFUNCTION NORMALIZATION =       1.0000000000

                ONE ELECTRON ENERGY =    -215.2293276757
                TWO ELECTRON ENERGY =      70.6318451614
           NUCLEAR REPULSION ENERGY =      30.2459057494
                                      ------------------
                       TOTAL ENERGY =    -114.3515767649

 ELECTRON-ELECTRON POTENTIAL ENERGY =      70.6318451614
  NUCLEUS-ELECTRON POTENTIAL ENERGY =    -329.2026361522
   NUCLEUS-NUCLEUS POTENTIAL ENERGY =      30.2459057494
                                      ------------------
             TOTAL POTENTIAL ENERGY =    -228.3248852414
               TOTAL KINETIC ENERGY =     113.9733084764
                 VIRIAL RATIO (V/T) =       2.0033189200

          ---------------------------------------
          MULLIKEN AND LOWDIN POPULATION ANALYSES
          ---------------------------------------

     ATOMIC MULLIKEN POPULATION IN EACH MOLECULAR ORBITAL
        ALPHA ORBITALS

                      1          2          3          4          5

                  1.000000   1.000000   1.000000   1.000000   1.000000

    1             0.000577   1.001478   0.202794   0.466667   0.382977
    2             0.000000  -0.000256   0.006348   0.139943   0.168807
    3             0.999423  -0.000784   0.781234   0.171962   0.308822
    4             0.000000  -0.000438   0.009624   0.221427   0.139394

                      6          7          8          9

                  1.000000   1.000000   1.000000   1.000000

    1             0.223639   0.278119   0.100524   0.723359
    2             0.055741   0.001261   0.138475   0.007837
    3             0.678775   0.719012   0.655603   0.259441
    4             0.041845   0.001608   0.105398   0.009363

     ATOMIC MULLIKEN POPULATION IN EACH MOLECULAR ORBITAL
         BETA ORBITALS

                      1          2          3          4          5

                  1.000000   1.000000   1.000000   1.000000   1.000000

    1             0.000511   1.001449   0.239285   0.442508   0.440636
    2             0.000000  -0.000250   0.007311   0.145934   0.218496
    3             0.999489  -0.000782   0.742147   0.172551   0.159037
    4             0.000000  -0.000417   0.011257   0.239006   0.181831

                      6          7

                  1.000000   1.000000

    1             0.210447   0.267830
    2             0.061534   0.001407
    3             0.693819   0.728910
    4             0.034200   0.001853

          MULLIKEN SPHERICAL HARMONIC POPULATIONS
       ATOM           S       P       D      F      G      H      I    TOTAL
    1 C             1.51    1.82    0.05   0.00   0.00   0.00   0.00    3.38
    2 H             0.50    0.02    0.00   0.00   0.00   0.00   0.00    0.52
    3 O             1.93    2.64    0.01   0.00   0.00   0.00   0.00    4.57
    4 H             0.50    0.02    0.00   0.00   0.00   0.00   0.00    0.53

          MULLIKEN SPHERICAL HARMONIC POPULATIONS
       ATOM           S       P       D      F      G      H      I    TOTAL
    1 C             1.49    1.08    0.03   0.00   0.00   0.00   0.00    2.60
    2 H             0.42    0.01    0.00   0.00   0.00   0.00   0.00    0.43
    3 O             1.91    1.58    0.01   0.00   0.00   0.00   0.00    3.50
    4 H             0.45    0.01    0.00   0.00   0.00   0.00   0.00    0.47

     ATOMIC SPIN POPULATION (ALPHA MINUS BETA)
       ATOM         MULL.POP.                    LOW.POP.
    1 C             0.777470                     0.768234
    2 H             0.083723                     0.084489
    3 O             1.078314                     1.071539
    4 H             0.060493                     0.075738


          ********* ALL ELECTRONS ********

               ----- POPULATIONS IN EACH AO -----
                             MULLIKEN      LOWDIN
              1  C  1  S      2.01513     1.86464
              2  C  1  S      0.65261     0.48382
              3  C  1  S      0.33589     0.29079
              4  C  1  X      0.74302     0.65423
              5  C  1  Y      0.65922     0.58867
              6  C  1  Z      0.72264     0.67047
              7  C  1  X      0.16225     0.37721
              8  C  1  Y      0.09685     0.25127
              9  C  1  Z      0.52233     0.50772
             10  C  1 XX      0.00403     0.18181
             11  C  1 YY      0.02491     0.19980
             12  C  1 ZZ      0.01959     0.08335
             13  C  1 XY      0.00001     0.06751
             14  C  1 XZ      0.02432     0.00004
             15  C  1 YZ      0.00000     0.05570
             16  H  2  S      0.72961     0.56432
             17  H  2  S      0.18825     0.25046
             18  H  2  X      0.01613     0.03311
             19  H  2  Y      0.00809     0.01958
             20  H  2  Z      0.01050     0.03269
             21  O  3  S      2.00840     1.91028
             22  O  3  S      0.88692     0.64499
             23  O  3  S      0.93966     0.53402
             24  O  3  X      0.70859     0.67470
             25  O  3  Y      0.93530     0.86875
             26  O  3  Z      1.07751     1.03360
             27  O  3  X      0.40105     0.40899
             28  O  3  Y      0.47165     0.56043
             29  O  3  Z      0.62551     0.64703
             30  O  3 XX      0.00170     0.19785
             31  O  3 YY      0.00495     0.20261
             32  O  3 ZZ      0.00308     0.19157
             33  O  3 XY      0.00000     0.00511
             34  O  3 XZ      0.00434     0.00000
             35  O  3 YZ      0.00000     0.00776
             36  H  4  S      0.77676     0.58817
             37  H  4  S      0.18023     0.23131
             38  H  4  X      0.01751     0.04483
             39  H  4  Y      0.00863     0.02584
             40  H  4  Z      0.01282     0.04500

          ----- MULLIKEN ATOMIC OVERLAP POPULATIONS -----
          (OFF-DIAGONAL ELEMENTS NEED TO BE MULTIPLIED BY 2)

             1           2           3           4

    1    4.8222899
    2    0.3796949   0.6306171
    3    0.3891457  -0.0170322   7.7123755
    4    0.3916701  -0.0406924  -0.0158294   0.6608040

          TOTAL MULLIKEN AND LOWDIN ATOMIC POPULATIONS
       ATOM         MULL.POP.    CHARGE          LOW.POP.     CHARGE
    1 C             5.982801    0.017199         6.277020   -0.277020
    2 H             0.952587    0.047413         0.900161    0.099839
    3 O             8.068660   -0.068660         7.887680    0.112320
    4 H             0.995952    0.004048         0.935140    0.064860

          MULLIKEN SPHERICAL HARMONIC POPULATIONS
       ATOM           S       P       D      F      G      H      I    TOTAL
    1 C             3.00    2.91    0.07   0.00   0.00   0.00   0.00    5.98
    2 H             0.92    0.03    0.00   0.00   0.00   0.00   0.00    0.95
    3 O             3.83    4.22    0.01   0.00   0.00   0.00   0.00    8.07
    4 H             0.96    0.04    0.00   0.00   0.00   0.00   0.00    1.00

          -------------------------------
          BOND ORDER AND VALENCE ANALYSIS     BOND ORDER THRESHOLD=0.050
          -------------------------------

                   BOND                       BOND                       BOND
  ATOM PAIR DIST  ORDER      ATOM PAIR DIST  ORDER      ATOM PAIR DIST  ORDER
    1   2  1.070  0.917        1   3  1.301  1.543        1   4  0.974  0.939
    2   3  2.057  0.080        3   4  1.977  0.069

                       TOTAL       BONDED        FREE
      ATOM            VALENCE     VALENCE     VALENCE
    1 C                 3.952       3.400       0.552
    2 H                 0.994       0.988       0.006
    3 O                 2.424       1.692       0.732
    4 H                 1.002       0.999       0.003

          -----------------------------------------
          ATOMIC SPIN DENSITY AT THE NUCLEUS (A.U.)
          -----------------------------------------
                            SPIN DENS    ALPHA DENS     BETA DENS
    1  C            6.0     0.0362097      60.29180      60.25559
    2  H            1.0     0.0380741       0.20070       0.16263
    3  O            8.0     0.1865256     148.90538     148.71885
    4  H            1.0     0.0328656       0.22244       0.18958

          ---------------------
          ELECTROSTATIC MOMENTS
          ---------------------

 POINT   1           X           Y           Z (BOHR)    CHARGE
                 0.001931    0.136994    0.000000        0.00 (A.U.)
         DX          DY          DZ         /D/  (DEBYE)
    -0.015935   -1.192542    0.000000    1.192649
 ...... END OF PROPERTY EVALUATION ......
 CPU     0: STEP CPU TIME=     0.01 TOTAL CPU TIME=        1.1 (    0.0 MIN)
 TOTAL WALL CLOCK TIME=        1.8 SECONDS, CPU UTILIZATION IS  64.25%
                580000  WORDS OF DYNAMIC MEMORY USED
 EXECUTION OF GAMESS TERMINATED NORMALLY Mon May  8 23:45:20 2017
 DDI: 263640 bytes (0.3 MB / 0 MWords) used by master data server.

 ----------------------------------------
 CPU timing information for all processes
 ========================================
 0: 1.90 + 0.65 = 1.156
 1: 1.37 + 0.48 = 1.86
 2: 1.83 + 0.34 = 1.118
 3: 1.70 + 0.42 = 1.113
 ----------------------------------------
 ddikick.x: exited gracefully.
----- accounting info -----
Files used on the master node RHEL6U1 were:
-rw-r--r-- 1 root root   50290 May  8 23:45 /sob/gamess/scr/test.dat
-rw-r--r-- 1 root root     377 May  8 23:45 /sob/gamess/scr/test.F05
-rw-r--r-- 1 root root  720064 May  8 23:45 /sob/gamess/scr/test.F08
-rw-r--r-- 1 root root  360032 May  8 23:45 /sob/gamess/scr/test.F08.001
-rw-r--r-- 1 root root  720064 May  8 23:45 /sob/gamess/scr/test.F08.002
-rw-r--r-- 1 root root  720064 May  8 23:45 /sob/gamess/scr/test.F08.003
-rw-r--r-- 1 root root 1897760 May  8 23:45 /sob/gamess/scr/test.F10
Mon May  8 23:45:23 CST 2017
0.140u 0.101s 0:05.09 4.7%	0+0k 0+8io 0pf+0w
