3-21g                                              
GAUSSIAN             29 MOL ORBITALS    132 PRIMITIVES       12 NUCLEI
  C    1    (CENTRE  1)   2.29119984 -0.74814998  0.00005004  CHARGE =  6.0
  N    2    (CENTRE  2)  -0.05663086 -1.85010345 -0.00064614  CHARGE =  7.0
  C    3    (CENTRE  3)  -2.41194364 -0.66481411 -0.00033281  CHARGE =  6.0
  C    4    (CENTRE  4)  -2.25816610  2.08396407  0.00014345  CHARGE =  6.0
  C    5    (CENTRE  5)  -0.01531151  3.20172458  0.00003166  CHARGE =  6.0
  N    6    (CENTRE  6)   2.20766573  1.85584659  0.00005240  CHARGE =  7.0
  O    7    (CENTRE  7)   4.25264016 -1.92730866  0.00015075  CHARGE =  8.0
  O    8    (CENTRE  8)  -4.34057089 -1.89886028  0.00019889  CHARGE =  8.0
  H    9    (CENTRE  9)  -0.07356458 -3.74152570  0.00206356  CHARGE =  1.0
  H   10    (CENTRE 10)  -3.98033801  3.12776690  0.00020161  CHARGE =  1.0
  H   11    (CENTRE 11)   0.18956966  5.21190919  0.00023966  CHARGE =  1.0
  H   12    (CENTRE 12)   3.87586317  2.73465179 -0.00049975  CHARGE =  1.0
CENTRE ASSIGNMENTS    1  1  1  1  1  1  1  1  1  1  1  1  1  1  1  2  2  2  2  2
CENTRE ASSIGNMENTS    2  2  2  2  2  2  2  2  2  2  3  3  3  3  3  3  3  3  3  3
CENTRE ASSIGNMENTS    3  3  3  3  3  4  4  4  4  4  4  4  4  4  4  4  4  4  4  4
CENTRE ASSIGNMENTS    5  5  5  5  5  5  5  5  5  5  5  5  5  5  5  6  6  6  6  6
CENTRE ASSIGNMENTS    6  6  6  6  6  6  6  6  6  6  7  7  7  7  7  7  7  7  7  7
CENTRE ASSIGNMENTS    7  7  7  7  7  8  8  8  8  8  8  8  8  8  8  8  8  8  8  8
CENTRE ASSIGNMENTS    9  9  9 10 10 10 11 11 11 12 12 12
TYPE ASSIGNMENTS      1  1  1  1  1  2  2  3  3  4  4  1  2  3  4  1  1  1  1  1
TYPE ASSIGNMENTS      2  2  3  3  4  4  1  2  3  4  1  1  1  1  1  2  2  3  3  4
TYPE ASSIGNMENTS      4  1  2  3  4  1  1  1  1  1  2  2  3  3  4  4  1  2  3  4
TYPE ASSIGNMENTS      1  1  1  1  1  2  2  3  3  4  4  1  2  3  4  1  1  1  1  1
TYPE ASSIGNMENTS      2  2  3  3  4  4  1  2  3  4  1  1  1  1  1  2  2  3  3  4
TYPE ASSIGNMENTS      4  1  2  3  4  1  1  1  1  1  2  2  3  3  4  4  1  2  3  4
TYPE ASSIGNMENTS      1  1  1  1  1  1  1  1  1  1  1  1
EXPONENTS  0.1722560D+03 0.2591090D+02 0.5533350D+01 0.3664980D+01 0.7705450D+00
EXPONENTS  0.3664980D+01 0.7705450D+00 0.3664980D+01 0.7705450D+00 0.3664980D+01
EXPONENTS  0.7705450D+00 0.1958570D+00 0.1958570D+00 0.1958570D+00 0.1958570D+00
EXPONENTS  0.2427660D+03 0.3648510D+02 0.7814490D+01 0.5425220D+01 0.1149150D+01
EXPONENTS  0.5425220D+01 0.1149150D+01 0.5425220D+01 0.1149150D+01 0.5425220D+01
EXPONENTS  0.1149150D+01 0.2832050D+00 0.2832050D+00 0.2832050D+00 0.2832050D+00
EXPONENTS  0.1722560D+03 0.2591090D+02 0.5533350D+01 0.3664980D+01 0.7705450D+00
EXPONENTS  0.3664980D+01 0.7705450D+00 0.3664980D+01 0.7705450D+00 0.3664980D+01
EXPONENTS  0.7705450D+00 0.1958570D+00 0.1958570D+00 0.1958570D+00 0.1958570D+00
EXPONENTS  0.1722560D+03 0.2591090D+02 0.5533350D+01 0.3664980D+01 0.7705450D+00
EXPONENTS  0.3664980D+01 0.7705450D+00 0.3664980D+01 0.7705450D+00 0.3664980D+01
EXPONENTS  0.7705450D+00 0.1958570D+00 0.1958570D+00 0.1958570D+00 0.1958570D+00
EXPONENTS  0.1722560D+03 0.2591090D+02 0.5533350D+01 0.3664980D+01 0.7705450D+00
EXPONENTS  0.3664980D+01 0.7705450D+00 0.3664980D+01 0.7705450D+00 0.3664980D+01
EXPONENTS  0.7705450D+00 0.1958570D+00 0.1958570D+00 0.1958570D+00 0.1958570D+00
EXPONENTS  0.2427660D+03 0.3648510D+02 0.7814490D+01 0.5425220D+01 0.1149150D+01
EXPONENTS  0.5425220D+01 0.1149150D+01 0.5425220D+01 0.1149150D+01 0.5425220D+01
EXPONENTS  0.1149150D+01 0.2832050D+00 0.2832050D+00 0.2832050D+00 0.2832050D+00
EXPONENTS  0.3220370D+03 0.4843080D+02 0.1042060D+02 0.7402940D+01 0.1576200D+01
EXPONENTS  0.7402940D+01 0.1576200D+01 0.7402940D+01 0.1576200D+01 0.7402940D+01
EXPONENTS  0.1576200D+01 0.3736840D+00 0.3736840D+00 0.3736840D+00 0.3736840D+00
EXPONENTS  0.3220370D+03 0.4843080D+02 0.1042060D+02 0.7402940D+01 0.1576200D+01
EXPONENTS  0.7402940D+01 0.1576200D+01 0.7402940D+01 0.1576200D+01 0.7402940D+01
EXPONENTS  0.1576200D+01 0.3736840D+00 0.3736840D+00 0.3736840D+00 0.3736840D+00
EXPONENTS  0.5447178D+01 0.8245472D+00 0.1831916D+00 0.5447178D+01 0.8245472D+00
EXPONENTS  0.1831916D+00 0.5447178D+01 0.8245472D+00 0.1831916D+00 0.5447178D+01
EXPONENTS  0.8245472D+00 0.1831916D+00
MO    1     MO 0.0        OCC NO =    2.0000000  ORB. ENERGY =  -20.440806
  0.66715352D-03  0.93604398D-03  0.57427577D-03 -0.16608662D-02  0.15837027D-02
  0.27170251D-02  0.14078451D-02 -0.17735529D-02 -0.91897856D-03  0.17996012D-06
  0.93247567D-07  0.38833613D-02  0.54444387D-02 -0.32168912D-02  0.47664922D-06
 -0.41064791D-03 -0.58439521D-03 -0.36829539D-03  0.10671429D-02 -0.98708839D-03
  0.19395365D-02  0.10059831D-02 -0.29581594D-02 -0.15343142D-02  0.10460692D-05
  0.54256673D-06  0.18979465D-02 -0.10595978D-02  0.26900790D-02 -0.50781005D-06
 -0.24497296D-03 -0.34370719D-03 -0.21086906D-03  0.11355300D-02 -0.10827735D-02
 -0.21579070D-02 -0.11181343D-02  0.90691273D-03  0.46992304D-03 -0.14406348D-06
 -0.74647477D-07 -0.12045156D-02  0.36955203D-03  0.23776196D-03  0.22655071D-06
 -0.20682194D-03 -0.29017974D-03 -0.17802923D-03  0.48971471D-03 -0.46696267D-03
 -0.33413042D-03 -0.17313197D-03  0.26901151D-03  0.13939016D-03 -0.11099003D-06
 -0.57510243D-07  0.32166572D-03  0.76397860D-04 -0.26805832D-03 -0.38456501D-07
 -0.29611091D-03 -0.41545585D-03 -0.25488784D-03  0.11483789D-02 -0.10950255D-02
 -0.19646628D-02 -0.10180035D-02  0.19565276D-02  0.10137882D-02 -0.18705257D-06
 -0.96922570D-07 -0.56715259D-03 -0.18812060D-03 -0.13378813D-03  0.23821225D-07
 -0.38455587D-03 -0.54726349D-03 -0.34489438D-03  0.10262126D-02 -0.94922859D-03
  0.36555096D-02  0.18960103D-02 -0.20022485D-03 -0.10385101D-03 -0.28721575D-06
 -0.14897075D-06  0.17959207D-02 -0.30302173D-02 -0.35913059D-03  0.49918821D-07
  0.31426314D+01  0.45031874D+01  0.28641544D+01 -0.13082820D+00  0.12385211D+00
 -0.17544744D-01 -0.88595019D-02  0.10636047D-01  0.53708434D-02  0.31208812D-06
  0.15759393D-06 -0.21478301D-01  0.62608616D-02 -0.37917514D-02  0.55739967D-07
 -0.31138062D+00 -0.44618828D+00 -0.28378835D+00  0.13141038D-01 -0.12440325D-01
 -0.19172850D-02 -0.96816399D-03 -0.11879527D-02 -0.59987587D-03  0.14207262D-05
  0.71741861D-06  0.22728305D-02  0.70659085D-03  0.43923830D-03 -0.54119301D-06
  0.75783245D-03  0.10646066D-02  0.21824119D-03 -0.27765541D-04 -0.39005163D-04
  0.93438358D-04  0.48757393D-04  0.68494615D-04  0.23558480D-03  0.83251753D-03
  0.11695245D-02  0.23799051D-03
MO    2     MO 0.0        OCC NO =    2.0000000  ORB. ENERGY =  -20.440481
 -0.19582486D-03 -0.27475038D-03 -0.16856311D-03  0.10112893D-02 -0.96430498D-03
  0.27543331D-02  0.14271765D-02  0.31493391D-03  0.16318516D-03  0.85572831D-06
  0.44340148D-06 -0.20732743D-03  0.67552945D-03 -0.40493613D-03  0.55839185D-06
 -0.56095170D-03 -0.79829333D-03 -0.50309748D-03  0.14492030D-02 -0.13404873D-02
 -0.13431011D-02 -0.69662883D-03 -0.35868650D-02 -0.18604062D-02  0.27418913D-05
  0.14221421D-05  0.25122702D-02  0.68338988D-03  0.33223624D-02 -0.15297835D-05
  0.80970972D-03  0.11360562D-02  0.69698601D-03 -0.19277831D-02  0.18382187D-02
 -0.24687048D-02 -0.12791763D-02 -0.15819945D-02 -0.81972128D-03  0.71017349D-06
  0.36798126D-06  0.29620466D-02 -0.62315768D-02 -0.37374086D-02  0.15217041D-05
 -0.41928269D-03 -0.58827096D-03 -0.36091227D-03  0.89446110D-03 -0.85290463D-03
 -0.20711691D-02 -0.10731905D-02 -0.53407801D-03 -0.27673618D-03  0.15270017D-06
  0.79122637D-07  0.33578042D-02  0.39548880D-02 -0.62746752D-03 -0.87960199D-06
 -0.23737355D-04 -0.33304490D-04 -0.20432760D-04  0.40927630D-03 -0.39026141D-03
  0.11719655D-02  0.60726195D-03  0.18419949D-02  0.95444228D-03  0.20875418D-06
  0.10816741D-06 -0.30941240D-02  0.93320753D-03  0.43459023D-03 -0.83929408D-09
 -0.18921240D-03 -0.26926917D-03 -0.16969783D-03  0.44237319D-03 -0.40918743D-03
  0.49258076D-03  0.25548781D-03  0.38005102D-03  0.19712180D-03  0.57079711D-06
  0.29605644D-06  0.62998665D-03 -0.49088035D-03 -0.32395168D-03 -0.29186525D-06
  0.31131170D+00  0.44608952D+00  0.28372553D+00 -0.12821430D-01  0.12137759D-01
 -0.15087883D-02 -0.76188702D-03  0.94835342D-03  0.47888636D-03  0.95423851D-06
  0.48185814D-06 -0.20451801D-02  0.55647898D-03 -0.34645689D-03 -0.41480219D-06
  0.31427571D+01  0.45033675D+01  0.28642690D+01 -0.13115407D+00  0.12416061D+00
  0.17269657D-01  0.87205919D-02  0.10532211D-01  0.53184102D-02 -0.53999312D-05
 -0.27267824D-05 -0.22078725D-01 -0.62491545D-02 -0.39519639D-02  0.19780678D-05
  0.89144199D-03  0.12523019D-02  0.28074083D-03  0.73842218D-03  0.10373390D-02
  0.13765376D-02  0.12321515D-03  0.17309322D-03  0.17837634D-03  0.11598993D-03
  0.16294321D-03  0.22225949D-04
MO    3     MO 0.0        OCC NO =    2.0000000  ORB. ENERGY =  -15.565800
 -0.57806377D-03 -0.81104738D-03 -0.49758864D-03  0.83989747D-03 -0.80087601D-03
 -0.66943249D-03 -0.34687103D-03  0.21838108D-02  0.11315565D-02 -0.36266555D-07
 -0.18791764D-07  0.44977475D-02 -0.11005999D-02  0.39791536D-02 -0.35317112D-06
  0.93072832D-02  0.13245244D-01  0.83473688D-02 -0.13517589D-02  0.12503532D-02
 -0.20838088D-02 -0.10808131D-02  0.11721102D-02  0.60794067D-03 -0.80729453D-06
 -0.41872102D-06 -0.18672695D-02  0.78020114D-03 -0.22205193D-02  0.32850305D-06
 -0.27659847D-03 -0.38807909D-03 -0.23809182D-03  0.16020097D-03 -0.15275807D-03
  0.13339795D-02  0.69121062D-03 -0.70429838D-04 -0.36493703D-04  0.12556855D-06
  0.65064203D-07  0.31354608D-02  0.82588308D-03  0.14887866D-02  0.31193044D-07
  0.83696616D-03  0.11742981D-02  0.72044794D-03 -0.14451294D-02  0.13779890D-02
 -0.59280741D-03 -0.30716722D-03 -0.15870595D-02 -0.82234572D-03 -0.36850916D-07
 -0.19094554D-07 -0.38969096D-02 -0.22606531D-02  0.26162120D-02  0.46571117D-06
 -0.73276319D-03 -0.10280971D-02 -0.63075159D-03  0.11606821D-02 -0.11067571D-02
  0.15476999D-02  0.80195129D-03 -0.16867629D-03 -0.87400774D-04  0.19912007D-06
  0.10317543D-06  0.55005986D-02  0.16539809D-02 -0.40570173D-02 -0.19342050D-06
  0.25883277D+01  0.36834628D+01  0.23213784D+01 -0.11006074D+00  0.10180425D+00
 -0.44385631D-02 -0.23021581D-02 -0.31111993D-02 -0.16136918D-02 -0.25838306D-05
 -0.13401604D-05 -0.22636365D-01  0.35951655D-02  0.26229110D-02  0.63456565D-06
 -0.18809845D-03 -0.26953291D-03 -0.17143055D-03  0.11849625D-02 -0.11217774D-02
  0.15757613D-02  0.79570608D-03  0.20085224D-02  0.10142358D-02 -0.66294125D-06
 -0.33476289D-06  0.15574624D-02 -0.99529407D-03 -0.13342285D-02  0.24972881D-06
 -0.72454451D-04 -0.10382254D-03 -0.66034068D-04  0.32023340D-03 -0.30315776D-03
 -0.18485494D-03 -0.93345485D-04  0.64985813D-03  0.32815635D-03  0.20278339D-06
  0.10239875D-06  0.50691963D-03  0.15419844D-03 -0.34442348D-03 -0.14771841D-06
 -0.62183868D-03 -0.87356191D-03  0.16600797D-03 -0.50683281D-03 -0.71200112D-03
 -0.99157374D-03  0.25632166D-03  0.36008187D-03  0.11095908D-02  0.26353826D-03
  0.37021978D-03  0.91873483D-03
MO    4     MO 0.0        OCC NO =    2.0000000  ORB. ENERGY =  -15.546304
 -0.62273808D-03 -0.87372728D-03 -0.53604362D-03  0.10871078D-02 -0.10366010D-02
 -0.16966146D-02 -0.87911250D-03 -0.22140177D-03 -0.11472084D-03  0.19195268D-06
  0.99461597D-07  0.43187361D-02 -0.40444113D-02 -0.73503371D-03 -0.66693122D-06
  0.25884336D+01  0.36836135D+01  0.23214733D+01 -0.11032009D+00  0.10204415D+00
  0.50856751D-03  0.26377969D-03  0.44852175D-02  0.23263564D-02  0.14752395D-04
  0.76516532D-05 -0.23124969D-01  0.58523397D-04 -0.37049004D-02 -0.40981997D-05
 -0.86160143D-03 -0.12088624D-02 -0.74165361D-03  0.14379316D-02 -0.13711256D-02
  0.12066196D-02  0.62521819D-03 -0.33454084D-03 -0.17334463D-03  0.36559147D-06
  0.18943373D-06  0.45413477D-02  0.46119769D-02 -0.78573302D-03 -0.30367426D-07
  0.58169878D-03  0.81614744D-03  0.50071760D-03 -0.91186969D-03  0.86950442D-03
  0.11272317D-02  0.58408284D-03  0.13447529D-02  0.69679293D-03  0.54064440D-06
  0.28013860D-06 -0.29667775D-02 -0.33244518D-02  0.57294509D-04  0.47004625D-08
 -0.14533366D-03 -0.20390913D-03 -0.12510104D-03 -0.39716272D-04  0.37871062D-04
  0.62243131D-03  0.32251705D-03 -0.78401730D-03 -0.40624393D-03 -0.28162605D-07
 -0.14592646D-07  0.36077491D-02 -0.98939034D-03 -0.12905754D-02  0.16930027D-06
 -0.83613554D-02 -0.11899089D-01 -0.74990001D-02 -0.59725985D-03  0.55245487D-03
 -0.19252053D-02 -0.99854994D-03  0.13671559D-02  0.70910538D-03  0.55287476D-07
  0.28676062D-07 -0.17013863D-02  0.22964282D-02  0.34595966D-03  0.59766892D-07
 -0.21939211D-03 -0.31437470D-03 -0.19995119D-03  0.13132046D-02 -0.12431813D-02
 -0.10204540D-02 -0.51529472D-03 -0.22855959D-02 -0.11541486D-02 -0.23723811D-06
 -0.11979721D-06  0.17446084D-02  0.63970417D-03  0.14921136D-02  0.22815903D-06
 -0.25042668D-03 -0.35884523D-03 -0.22823570D-03  0.14703418D-02 -0.13919396D-02
  0.95180933D-03  0.48063148D-03 -0.21813279D-02 -0.11014967D-02  0.17565530D-05
  0.88699978D-06  0.19992927D-02 -0.65860695D-03  0.15434892D-02 -0.80132682D-06
  0.51501516D-03  0.72349572D-03  0.10041331D-02 -0.56985408D-03 -0.80053369D-03
 -0.82123813D-03 -0.21095729D-04 -0.29635380D-04  0.26139904D-03 -0.61893497D-03
 -0.86948276D-03  0.11920936D-03
MO    5     MO 0.0        OCC NO =    2.0000000  ORB. ENERGY =  -11.367422
  0.20644626D+01  0.28965264D+01  0.17770585D+01 -0.69769944D-01  0.66528448D-01
 -0.76760453D-03 -0.39773954D-03  0.56272478D-03  0.29157970D-03 -0.53920204D-06
 -0.27939123D-06 -0.66355327D-02  0.19246804D-02 -0.12805940D-02  0.26517658D-06
  0.30908155D-03  0.43985558D-03  0.27720417D-03 -0.34517538D-03  0.31928116D-03
  0.87623817D-03  0.45448015D-03 -0.31434992D-03 -0.16304448D-03  0.10256627D-05
  0.53198245D-06  0.83543646D-03 -0.55046121D-03 -0.18336996D-03 -0.54726581D-06
 -0.17958105D-01 -0.25195964D-01 -0.15458068D-01  0.27207829D-02 -0.25943759D-02
 -0.20324048D-02 -0.10531045D-02  0.80106820D-05  0.41507897D-05 -0.43344405D-06
 -0.22459200D-06  0.19947952D-02  0.18677035D-02  0.22793476D-02  0.40816344D-06
  0.12145463D-02  0.17040586D-02  0.10454633D-02 -0.11959279D-02  0.11403654D-02
 -0.42355450D-03 -0.21946766D-03  0.22155271D-03  0.11479905D-03 -0.99868019D-07
 -0.51747298D-07 -0.49424069D-02 -0.23525049D-02  0.14372740D-02  0.42178883D-06
 -0.70923426D-02 -0.99508500D-02 -0.61049824D-02  0.21832546D-02 -0.20818211D-02
 -0.91731348D-03 -0.47531226D-03  0.31625957D-02  0.16387206D-02 -0.16857410D-07
 -0.87347822D-08  0.29610348D-02 -0.95114014D-03 -0.33162018D-02 -0.40364665D-07
  0.42549508D-03  0.60552430D-03  0.38161129D-03 -0.80694408D-03  0.74640910D-03
  0.14033294D-03  0.72786758D-04 -0.42684609D-03 -0.22139309D-03 -0.16737233D-06
 -0.86811329D-07  0.31769713D-03  0.47829357D-03  0.31137285D-03 -0.57735520D-08
  0.62963270D-03  0.90222293D-03  0.57383927D-03 -0.25212940D-02  0.23868524D-02
  0.15057442D-02  0.76034985D-03 -0.99452121D-03 -0.50219954D-03  0.46929878D-06
  0.23697999D-06 -0.22898750D-02  0.23048114D-02 -0.13280607D-02 -0.57876575D-07
 -0.60381860D-03 -0.86523299D-03 -0.55031262D-03  0.21430935D-02 -0.20288185D-02
 -0.49694978D-03 -0.25094281D-03  0.28502759D-03  0.14392928D-03  0.20019596D-05
  0.10109218D-05  0.27736573D-02  0.87708705D-03  0.66464363D-04 -0.10436191D-05
 -0.40018223D-03 -0.56217788D-03  0.50109376D-03 -0.27303027D-03 -0.38355421D-03
 -0.69128965D-03  0.54457548D-03  0.76502221D-03  0.13962808D-02 -0.39900203D-03
 -0.56051993D-03  0.35352562D-03
MO    6     MO 0.0        OCC NO =    2.0000000  ORB. ENERGY =  -11.327490
  0.16879987D-01  0.23683319D-01  0.14530040D-01  0.12434907D-02 -0.11857184D-02
  0.28661375D-02  0.14851087D-02  0.58507118D-03  0.30315864D-03  0.39226416D-06
  0.20325436D-06  0.28242718D-04 -0.89391402D-03  0.16857976D-02  0.37975285D-06
  0.10987662D-03  0.15636600D-03  0.98544402D-04 -0.22630167D-04  0.20932507D-04
 -0.31810830D-02 -0.16499385D-02 -0.12980832D-02 -0.67327931D-03  0.93167320D-06
  0.48323274D-06  0.15739760D-02  0.17317155D-02  0.11220174D-02 -0.40695036D-06
  0.20653878D+01  0.28978245D+01  0.17778549D+01 -0.71959206D-01  0.68615997D-01
  0.37368440D-03  0.19362713D-03 -0.11830353D-03 -0.61299786D-04  0.17764887D-05
  0.92049981D-06 -0.11172783D-01 -0.21317405D-02 -0.47796652D-02 -0.68159446D-06
 -0.47931449D-02 -0.67249806D-02 -0.41258674D-02  0.26140119D-02 -0.24925655D-02
 -0.65526824D-03 -0.33953173D-03  0.16373281D-02  0.84839275D-03  0.27711792D-06
  0.14359055D-06  0.56564875D-02  0.64295775D-03 -0.37507728D-02 -0.66428486D-06
 -0.65422491D-02 -0.91790460D-02 -0.56314701D-02  0.11034865D-02 -0.10522188D-02
  0.18201135D-02  0.94310428D-03  0.16535070D-02  0.85677600D-03  0.27368833D-06
  0.14181348D-06 -0.17916216D-03 -0.76436396D-03 -0.86916609D-04  0.34312293D-07
  0.27415764D-03  0.39015519D-03  0.24588217D-03 -0.74303227D-03  0.68729180D-03
 -0.42444503D-04 -0.22014772D-04 -0.64169199D-03 -0.33282763D-03  0.65014549D-06
  0.33721222D-06 -0.12010678D-02  0.23069316D-03  0.13113960D-02 -0.31180210D-06
 -0.49677102D-03 -0.71184073D-03 -0.45275081D-03  0.18065931D-02 -0.17102611D-02
  0.76302073D-03  0.38529963D-03  0.19801815D-03  0.99992459D-04  0.72175801D-06
  0.36446335D-06  0.21941258D-02 -0.85884600D-03 -0.32783993D-04 -0.37643116D-06
  0.78409310D-03  0.11235547D-02  0.71461251D-03 -0.30733606D-02  0.29094813D-02
 -0.65922268D-03 -0.33288513D-03 -0.29387673D-02 -0.14839780D-02 -0.14735801D-05
 -0.74410807D-06 -0.30241526D-02 -0.29128133D-02 -0.24254321D-03  0.16492966D-05
 -0.59920547D-05 -0.84176666D-05  0.41262991D-03 -0.20957844D-03 -0.29441678D-03
  0.83126548D-03 -0.89742536D-05 -0.12607074D-04  0.37962383D-03 -0.16353600D-03
 -0.22973615D-03 -0.51461501D-04
MO    7     MO 0.0        OCC NO =    2.0000000  ORB. ENERGY =  -11.282332
  0.59260467D-02  0.83144887D-02  0.51010523D-02  0.14289188D-02 -0.13625315D-02
  0.55980068D-03  0.29006456D-03 -0.15502959D-02 -0.80329643D-03 -0.65116489D-07
 -0.33740555D-07  0.76108117D-03 -0.22139208D-02  0.43971998D-03 -0.36504482D-06
  0.35402746D-03  0.50381835D-03  0.31751455D-03 -0.86852546D-03  0.80337079D-03
  0.41387264D-03  0.21466412D-03 -0.35504121D-04 -0.18414991D-04  0.17065621D-06
  0.88514586D-07 -0.17198731D-02 -0.10315704D-02 -0.88094915D-03 -0.26368661D-06
  0.60471825D-02  0.84844471D-02  0.52053242D-02  0.60858306D-03 -0.58030843D-03
  0.11487920D-03  0.59525446D-04 -0.13552128D-02 -0.70221277D-03  0.82900392D-07
  0.42955406D-07  0.41185473D-03 -0.13211372D-03  0.77471519D-03 -0.29501458D-07
  0.39801463D-03  0.55843098D-03  0.34260504D-03  0.29236689D-02 -0.27878358D-02
 -0.38658886D-02 -0.20031367D-02 -0.18037091D-02 -0.93460424D-03  0.16134624D-06
  0.83602661D-07  0.56302601D-02  0.28763241D-02  0.17914228D-02  0.41184269D-07
  0.20655038D+01  0.28979873D+01  0.17779548D+01 -0.72186816D-01  0.68833032D-01
  0.68327133D-03  0.35404172D-03 -0.19993784D-02 -0.10359916D-02  0.63280871D-06
  0.32789417D-06 -0.13948724D-01  0.25300417D-02  0.10032323D-02 -0.38932006D-06
  0.27187878D-03  0.38691213D-03  0.24383834D-03 -0.41649495D-03  0.38525051D-03
 -0.10728675D-02 -0.55646626D-03  0.10480042D-02  0.54357037D-03 -0.44274801D-06
 -0.22964097D-06  0.74338524D-03  0.91832083D-03 -0.43484143D-03  0.25760358D-06
 -0.56457900D-03 -0.80900517D-03 -0.51455014D-03  0.20127008D-02 -0.19053786D-02
  0.18286038D-03  0.92338300D-04 -0.51668228D-03 -0.26090706D-03 -0.35572908D-06
 -0.17963114D-06  0.24946522D-02 -0.48364166D-03  0.69510185D-03  0.15653583D-06
 -0.16586875D-03 -0.23767919D-03 -0.15117068D-03  0.66925627D-03 -0.63356986D-03
 -0.23610614D-03 -0.11922561D-03 -0.41836612D-03 -0.21126072D-03 -0.11768579D-06
 -0.59427338D-07  0.55360106D-03  0.23945296D-03  0.10196274D-03  0.19718179D-07
 -0.14502845D-03 -0.20373665D-03  0.22107095D-04 -0.41219543D-03 -0.57905408D-03
  0.28789628D-03 -0.76048994D-03 -0.10683399D-02  0.21750546D-02 -0.49193578D-03
 -0.69107370D-03  0.10782276D-03
MO    8     MO 0.0        OCC NO =    2.0000000  ORB. ENERGY =  -11.196624
 -0.47144062D-03 -0.66145069D-03 -0.40580903D-03 -0.18402185D-03  0.17547223D-03
 -0.12977307D-03 -0.67242803D-04  0.34330746D-03  0.17788711D-03 -0.21703577D-06
 -0.11245857D-06  0.30629116D-03 -0.65756629D-03  0.29525713D-03 -0.85175296D-07
  0.38619250D-03  0.54959259D-03  0.34636222D-03 -0.68807947D-03  0.63646142D-03
  0.10427833D-02  0.54086241D-03 -0.69633399D-03 -0.36116890D-03  0.14802605D-06
  0.76776957D-07 -0.18930369D-02  0.54890779D-04 -0.81827488D-03 -0.34354829D-06
  0.32681600D-02  0.45853636D-02  0.28131832D-02  0.24169373D-02 -0.23046469D-02
 -0.10486471D-03 -0.54336365D-04 -0.11606636D-02 -0.60140579D-03 -0.11058208D-06
 -0.57298864D-07  0.64813915D-02  0.13534038D-02  0.32235346D-02  0.44281706D-06
  0.20664162D+01  0.28992673D+01  0.17787401D+01 -0.74876820D-01  0.71398059D-01
  0.28202189D-02  0.14613157D-02 -0.13868077D-02 -0.71858390D-03 -0.12497320D-05
 -0.64755719D-06 -0.19498172D-01 -0.39663703D-02  0.22926448D-02  0.10053930D-05
 -0.16869436D-02 -0.23668516D-02 -0.14520958D-02  0.34888045D-02 -0.33267154D-02
  0.34477909D-02  0.17864964D-02  0.23071779D-02  0.11954800D-02 -0.76040527D-07
 -0.39400920D-07  0.81389280D-02 -0.23056115D-02 -0.37098037D-02 -0.11628771D-06
  0.57014797D-03  0.81138060D-03  0.51134529D-03 -0.12603152D-02  0.11657694D-02
  0.43946679D-03  0.22793909D-03 -0.67834163D-03 -0.35183677D-03 -0.51139404D-06
 -0.26524574D-06 -0.25677807D-02  0.15613939D-02  0.31256682D-03  0.20784915D-06
 -0.17151581D-03 -0.24577107D-03 -0.15631734D-03  0.60842589D-03 -0.57598311D-03
  0.11400799D-03  0.57570175D-04 -0.10234119D-03 -0.51678835D-04 -0.96007190D-08
 -0.48480380D-08  0.79347147D-03 -0.19863197D-03  0.15663068D-03  0.14882622D-07
 -0.90129017D-04 -0.12914905D-03 -0.82142444D-04  0.58870228D-03 -0.55731122D-03
 -0.56405429D-03 -0.28482832D-03  0.40540564D-03  0.20471612D-03  0.63307864D-06
  0.31968328D-06  0.69979632D-03  0.19116078D-03 -0.70821467D-03 -0.40733206D-06
 -0.70139760D-04 -0.98532665D-04  0.18019864D-03 -0.99839917D-03 -0.14025559D-02
  0.12149365D-02 -0.31298702D-04 -0.43968565D-04  0.10265343D-02 -0.18299862D-03
 -0.25707732D-03  0.40739220D-04
MO    9     MO 0.0        OCC NO =    2.0000000  ORB. ENERGY =   -1.444759
 -0.28260233D+00 -0.39650276D+00 -0.24325986D+00 -0.12248691D+00  0.11679620D+00
  0.11834992D+00  0.61323823D-01 -0.73791068D-01 -0.38235347D-01  0.28422167D-05
  0.14727140D-05  0.17040214D-01 -0.50111441D-02  0.27272119D-02  0.13727154D-06
 -0.20610101D+00 -0.29330344D+00 -0.18484461D+00 -0.70309239D-01  0.65034811D-01
  0.57101413D-01  0.29616901D-01  0.51317123D-01  0.26616751D-01  0.11562056D-03
  0.59969140D-04  0.63445424D-01  0.60796221D-02  0.52413670D-02  0.16865060D-04
 -0.11256354D+00 -0.15793130D+00 -0.96893007D-01 -0.51647312D-01  0.49247790D-01
 -0.12051436D-01 -0.62445343D-02 -0.47463158D-01 -0.24593360D-01  0.22840380D-04
  0.11834899D-04  0.42576939D-02 -0.20413426D-02 -0.11710539D-02 -0.23907748D-05
 -0.36489817D-01 -0.51196722D-01 -0.31409888D-01 -0.11572747D-01  0.11035079D-01
  0.18842658D-01  0.97634524D-02 -0.18188602D-01 -0.94245487D-02 -0.34262995D-05
 -0.17753605D-05  0.16187241D-01  0.65201619D-02 -0.44198287D-02 -0.31038801D-06
 -0.49790316D-01 -0.69857872D-01 -0.42858759D-01 -0.26816473D-01  0.25570585D-01
  0.24243121D-01  0.12561739D-01 -0.43081765D-01 -0.22323112D-01 -0.95451418D-06
 -0.49458806D-06 -0.18391408D-02  0.15999789D-02  0.11987579D-01  0.36590265D-06
 -0.19192325D+00 -0.27312700D+00 -0.17212909D+00 -0.63759542D-01  0.58976457D-01
 -0.89197526D-02 -0.46264253D-02 -0.91470101D-01 -0.47442974D-01 -0.14718202D-04
 -0.76339184D-05  0.63097982D-01 -0.45516853D-02 -0.12063597D-01 -0.18593338D-05
 -0.50640613D+00 -0.72564722D+00 -0.46153213D+00 -0.18900853D+00  0.17893013D+00
 -0.37430201D+00 -0.18900984D+00  0.22666303D+00  0.11445715D+00 -0.24087202D-04
 -0.12163222D-04  0.16794109D+00 -0.40210813D-01  0.24563755D-01 -0.13153504D-05
 -0.18446227D+00 -0.26432250D+00 -0.16811658D+00 -0.71707216D-01  0.67883609D-01
  0.14205588D+00  0.71733411D-01  0.79053469D-01  0.39919325D-01 -0.33356171D-04
 -0.16843737D-04  0.57169903D-01  0.14509505D-01  0.74842203D-02 -0.10137886D-05
  0.10471790D-01  0.14710820D-01 -0.47460671D-03  0.22726812D-02  0.31926733D-02
  0.15827079D-02  0.10586090D-02  0.14871389D-02 -0.61306868D-02  0.10612558D-01
  0.14908571D-01  0.43952430D-03
MO   10     MO 0.0        OCC NO =    2.0000000  ORB. ENERGY =   -1.412657
  0.98000891D-01  0.13749930D+00  0.84357700D-01  0.36183208D-01 -0.34502144D-01
 -0.11673561D+00 -0.60487355D-01  0.38186975D-01  0.19786843D-01 -0.65460010D-05
 -0.33918552D-05 -0.70410726D-02  0.73348102D-02 -0.54001677D-02 -0.20139316D-05
 -0.90288776D-01 -0.12849043D+00 -0.80976768D-01 -0.32700496D-01  0.30247385D-01
 -0.10959630D+00 -0.56844527D-01  0.17749208D-01  0.92060161D-02  0.49320222D-04
  0.25581015D-04  0.25218606D-01 -0.14345820D-01 -0.16875058D-02  0.90722450D-05
 -0.25833279D+00 -0.36245159D+00 -0.22236900D+00 -0.10181702D+00  0.97086626D-01
 -0.18051500D+00 -0.93535083D-01 -0.13845465D+00 -0.71741224D-01  0.62710506D-04
  0.32493878D-04  0.26431313D-01  0.13793159D-01  0.14170217D-01 -0.74306418D-06
 -0.40184544D-01 -0.56380577D-01 -0.34590254D-01 -0.17856395D-01  0.17026791D-01
 -0.45338451D-02 -0.23492429D-02 -0.38553672D-01 -0.19976849D-01 -0.42751256D-05
 -0.22151856D-05 -0.60467310D-02 -0.86139153D-02  0.31327915D-02  0.23416981D-05
 -0.25272779D-02 -0.35458755D-02 -0.21754430D-02 -0.11513953D-02  0.10979018D-02
 -0.19011766D-01 -0.98510766D-02 -0.53286752D-02 -0.27610895D-02 -0.67300244D-06
 -0.34872082D-06  0.59745083D-02 -0.21505757D-02 -0.14016722D-02  0.56250107D-08
  0.44392243D-01  0.63174836D-01  0.39813812D-01  0.17124879D-01 -0.15840212D-01
 -0.17302606D-01 -0.89743764D-02  0.27817123D-01  0.14427961D-01  0.65467884D-06
  0.33956354D-06 -0.93911323D-02 -0.42351908D-02  0.18427767D-02  0.17077643D-05
  0.26016679D+00  0.37280218D+00  0.23711272D+00  0.93149434D-01 -0.88182474D-01
  0.17443450D+00  0.88083516D-01 -0.11463577D+00 -0.57887182D-01  0.89746958D-05
  0.45319175D-05 -0.93161574D-01  0.20697578D-01 -0.13097435D-01  0.21061898D-05
 -0.60106834D+00 -0.86129204D+00 -0.54780607D+00 -0.22011648D+00  0.20837933D+00
  0.41702247D+00  0.21058223D+00  0.25799445D+00  0.13027846D+00 -0.94995149D-04
 -0.47969334D-04  0.20950315D+00  0.48067344D-01  0.26568923D-01 -0.12961858D-04
  0.43441413D-02  0.61026701D-02 -0.27384651D-04  0.14673241D-02  0.20613038D-02
 -0.33510110D-02 -0.23737302D-04 -0.33346274D-04 -0.27399403D-03 -0.24893998D-02
 -0.34971206D-02  0.69482595D-04
MO   11     MO 0.0        OCC NO =    2.0000000  ORB. ENERGY =   -1.316999
 -0.28567892D-01 -0.40081933D-01 -0.24590814D-01 -0.17799182D-01  0.16972236D-01
 -0.22396714D+00 -0.11605011D+00  0.19759033D+00  0.10238278D+00 -0.22598122D-04
 -0.11709371D-04 -0.37125768D-02  0.10553232D-01 -0.69524727D-02  0.17702972D-05
 -0.17965857D+00 -0.25567307D+00 -0.16112934D+00 -0.58092022D-01  0.53734100D-01
  0.16641206D-01  0.86313267D-02  0.84219298D-01  0.43682186D-01  0.10454734D-03
  0.54225773D-04  0.70982665D-01  0.25329465D-04  0.21590053D-01  0.11254129D-04
 -0.95970945D-02 -0.13465120D-01 -0.82610353D-02 -0.71770990D-02  0.68436525D-02
  0.12629735D+00  0.65441837D-01  0.50051971D-01  0.25934771D-01 -0.15313864D-04
 -0.79349835D-05 -0.97458219D-02 -0.69234711D-02 -0.52157572D-02  0.45155965D-06
 -0.78988870D-01 -0.11082465D+00 -0.67992437D-01 -0.25960459D-01  0.24754341D-01
  0.67535951D-01  0.34994215D-01  0.41162846D-02  0.21328810D-02 -0.63536910D-05
 -0.32922085D-05  0.26151589D-01  0.13168797D-01 -0.92517095D-02 -0.22178456D-05
 -0.17818685D+00 -0.25000352D+00 -0.15338058D+00 -0.72840900D-01  0.69456727D-01
  0.72111728D-01  0.37365186D-01 -0.89249060D-01 -0.46245012D-01 -0.62576702D-06
 -0.32424547D-06  0.13204427D-01 -0.16918047D-02  0.94342187D-02  0.58610722D-06
 -0.40545259D+00 -0.57700173D+00 -0.36363590D+00 -0.13822418D+00  0.12785493D+00
 -0.11155773D+00 -0.57861863D-01 -0.10206668D-01 -0.52939122D-02 -0.39540333D-04
 -0.20508461D-04  0.14392337D+00 -0.26322475D-01 -0.75893310D-02 -0.47391842D-05
  0.36766126D+00  0.52683480D+00  0.33508182D+00  0.13468388D+00 -0.12750220D+00
  0.20824684D+00  0.10515760D+00 -0.10418615D+00 -0.52610478D-01  0.11753727D-04
  0.59352339D-05 -0.13323344D+00  0.23950594D-01 -0.12102809D-01 -0.33561589D-06
  0.17334377D+00  0.24839041D+00  0.15798332D+00  0.64013132D-01 -0.60599793D-01
 -0.89135499D-01 -0.45010409D-01 -0.68702798D-01 -0.34692587D-01  0.27508234D-04
  0.13890727D-04 -0.62695647D-01 -0.98673525D-02 -0.72836938D-02  0.34703403D-05
  0.10911207D-01  0.15328115D-01  0.35125572D-03  0.50894604D-02  0.71496980D-02
  0.45397625D-02  0.10118824D-01  0.14214971D-01 -0.37152314D-02  0.26934606D-01
  0.37837862D-01  0.21436541D-02
MO   12     MO 0.0        OCC NO =    2.0000000  ORB. ENERGY =   -1.245820
 -0.35738900D-01 -0.50143154D-01 -0.30763510D-01 -0.16547591D-01  0.15778794D-01
 -0.19641391D+00 -0.10177321D+00 -0.14372994D+00 -0.74474652D-01 -0.21839743D-04
 -0.11316412D-04  0.26203794D-02  0.21336260D-02  0.54244663D-03 -0.87646021D-06
 -0.47580611D+00 -0.67712219D+00 -0.42673345D+00 -0.16591004D+00  0.15346387D+00
  0.16123680D-01  0.83629005D-02  0.29252055D-01  0.15172220D-01  0.31484750D-03
  0.16330256D-03  0.16703493D+00  0.57390382D-03  0.13719081D-01  0.38789496D-04
 -0.54514090D-01 -0.76485523D-01 -0.46924913D-01 -0.26555292D-01  0.25321539D-01
  0.22365477D+00  0.11588825D+00 -0.10246901D-01 -0.53095019D-02 -0.19323387D-04
 -0.10012545D-04  0.77643801D-02 -0.83997723D-02  0.18341717D-02 -0.36571156D-06
  0.89611425D-02  0.12572854D-01  0.77136174D-02  0.45015669D-02 -0.42924250D-02
 -0.17435067D-01 -0.90340996D-02 -0.36546274D-01 -0.18936702D-01 -0.44360647D-05