 MP2/6-311++G** opted
GAUSSIAN            161 MOL ORBITALS    225 PRIMITIVES        5 NUCLEI
  O    1    (CENTRE  1)  -0.07041989 -2.34299811  0.00000000  CHARGE =  8.0
  H    2    (CENTRE  2)   0.65423906 -3.18335743  1.43719909  CHARGE =  1.0
  H    3    (CENTRE  3)   0.65423906 -3.18335743 -1.43719909  CHARGE =  1.0
  F    4    (CENTRE  4)  -0.07041989  2.68707869  0.00000000  CHARGE =  9.0
  H    5    (CENTRE  5)  -0.11134002  0.92699155  0.00000000  CHARGE =  1.0
CENTRE ASSIGNMENTS    1  1  1  1  1  1  1  1  1  1  1  1  1  1  1  1  1  1  1  1
CENTRE ASSIGNMENTS    1  1  1  1  1  1  1  1  1  1  1  1  1  1  1  1  1  1  1  1
CENTRE ASSIGNMENTS    1  1  1  1  1  1  1  1  1  1  1  1  1  1  1  1  1  1  1  1
CENTRE ASSIGNMENTS    1  1  1  1  1  1  1  1  1  1  1  1  2  2  2  2  2  2  2  2
CENTRE ASSIGNMENTS    2  2  2  2  2  2  2  2  2  2  2  2  2  2  2  2  2  2  2  3
CENTRE ASSIGNMENTS    3  3  3  3  3  3  3  3  3  3  3  3  3  3  3  3  3  3  3  3
CENTRE ASSIGNMENTS    3  3  3  3  3  3  4  4  4  4  4  4  4  4  4  4  4  4  4  4
CENTRE ASSIGNMENTS    4  4  4  4  4  4  4  4  4  4  4  4  4  4  4  4  4  4  4  4
CENTRE ASSIGNMENTS    4  4  4  4  4  4  4  4  4  4  4  4  4  4  4  4  4  4  4  4
CENTRE ASSIGNMENTS    4  4  4  4  4  4  4  4  4  4  4  4  4  4  4  4  4  4  5  5
CENTRE ASSIGNMENTS    5  5  5  5  5  5  5  5  5  5  5  5  5  5  5  5  5  5  5  5
CENTRE ASSIGNMENTS    5  5  5  5  5
TYPE ASSIGNMENTS      1  1  1  1  1  1  1  1  1  1  1  1  1  1  1  1  2  2  2  3
TYPE ASSIGNMENTS      3  3  4  4  4  2  3  4  2  3  4  2  3  4  5  6  7  8  9 10
TYPE ASSIGNMENTS      5  6  7  8  9 10  5  6  7  8  9 10 11 12 13 17 14 15 18 19
TYPE ASSIGNMENTS     16 20 11 12 13 17 14 15 18 19 16 20  1  1  1  1  1  1  2  3
TYPE ASSIGNMENTS      4  2  3  4  2  3  4  5  6  7  8  9 10  5  6  7  8  9 10  1
TYPE ASSIGNMENTS      1  1  1  1  1  2  3  4  2  3  4  2  3  4  5  6  7  8  9 10
TYPE ASSIGNMENTS      5  6  7  8  9 10  1  1  1  1  1  1  1  1  1  1  1  1  1  1
TYPE ASSIGNMENTS      1  1  2  2  2  3  3  3  4  4  4  2  3  4  2  3  4  2  3  4
TYPE ASSIGNMENTS      5  6  7  8  9 10  5  6  7  8  9 10  5  6  7  8  9 10 11 12
TYPE ASSIGNMENTS     13 17 14 15 18 19 16 20 11 12 13 17 14 15 18 19 16 20  1  1
TYPE ASSIGNMENTS      1  1  1  1  2  3  4  2  3  4  2  3  4  5  6  7  8  9 10  5
TYPE ASSIGNMENTS      6  7  8  9 10
EXPONENTS  0.1533000D+05 0.2299000D+04 0.5224000D+03 0.1473000D+03 0.4755000D+02
EXPONENTS  0.1676000D+02 0.6207000D+01 0.5224000D+03 0.1473000D+03 0.4755000D+02
EXPONENTS  0.1676000D+02 0.6207000D+01 0.6882000D+00 0.1752000D+01 0.2384000D+00
EXPONENTS  0.7376000D-01 0.3446000D+02 0.7749000D+01 0.2280000D+01 0.3446000D+02
EXPONENTS  0.7749000D+01 0.2280000D+01 0.3446000D+02 0.7749000D+01 0.2280000D+01
EXPONENTS  0.7156000D+00 0.7156000D+00 0.7156000D+00 0.2140000D+00 0.2140000D+00
EXPONENTS  0.2140000D+00 0.5974000D-01 0.5974000D-01 0.5974000D-01 0.2314000D+01
EXPONENTS  0.2314000D+01 0.2314000D+01 0.2314000D+01 0.2314000D+01 0.2314000D+01
EXPONENTS  0.6450000D+00 0.6450000D+00 0.6450000D+00 0.6450000D+00 0.6450000D+00
EXPONENTS  0.6450000D+00 0.2140000D+00 0.2140000D+00 0.2140000D+00 0.2140000D+00
EXPONENTS  0.2140000D+00 0.2140000D+00 0.1428000D+01 0.1428000D+01 0.1428000D+01
EXPONENTS  0.1428000D+01 0.1428000D+01 0.1428000D+01 0.1428000D+01 0.1428000D+01
EXPONENTS  0.1428000D+01 0.1428000D+01 0.5000000D+00 0.5000000D+00 0.5000000D+00
EXPONENTS  0.5000000D+00 0.5000000D+00 0.5000000D+00 0.5000000D+00 0.5000000D+00
EXPONENTS  0.5000000D+00 0.5000000D+00 0.3387000D+02 0.5095000D+01 0.1159000D+01
EXPONENTS  0.3258000D+00 0.1027000D+00 0.2526000D-01 0.1407000D+01 0.1407000D+01
EXPONENTS  0.1407000D+01 0.3880000D+00 0.3880000D+00 0.3880000D+00 0.1020000D+00
EXPONENTS  0.1020000D+00 0.1020000D+00 0.1057000D+01 0.1057000D+01 0.1057000D+01
EXPONENTS  0.1057000D+01 0.1057000D+01 0.1057000D+01 0.2470000D+00 0.2470000D+00
EXPONENTS  0.2470000D+00 0.2470000D+00 0.2470000D+00 0.2470000D+00 0.3387000D+02
EXPONENTS  0.5095000D+01 0.1159000D+01 0.3258000D+00 0.1027000D+00 0.2526000D-01
EXPONENTS  0.1407000D+01 0.1407000D+01 0.1407000D+01 0.3880000D+00 0.3880000D+00
EXPONENTS  0.3880000D+00 0.1020000D+00 0.1020000D+00 0.1020000D+00 0.1057000D+01
EXPONENTS  0.1057000D+01 0.1057000D+01 0.1057000D+01 0.1057000D+01 0.1057000D+01
EXPONENTS  0.2470000D+00 0.2470000D+00 0.2470000D+00 0.2470000D+00 0.2470000D+00
EXPONENTS  0.2470000D+00 0.1950000D+05 0.2923000D+04 0.6645000D+03 0.1875000D+03
EXPONENTS  0.6062000D+02 0.2142000D+02 0.7950000D+01 0.6645000D+03 0.1875000D+03
EXPONENTS  0.6062000D+02 0.2142000D+02 0.7950000D+01 0.8815000D+00 0.2257000D+01
EXPONENTS  0.3041000D+00 0.9158000D-01 0.4388000D+02 0.9926000D+01 0.2930000D+01
EXPONENTS  0.4388000D+02 0.9926000D+01 0.2930000D+01 0.4388000D+02 0.9926000D+01
EXPONENTS  0.2930000D+01 0.9132000D+00 0.9132000D+00 0.9132000D+00 0.2672000D+00
EXPONENTS  0.2672000D+00 0.2672000D+00 0.7361000D-01 0.7361000D-01 0.7361000D-01
EXPONENTS  0.3107000D+01 0.3107000D+01 0.3107000D+01 0.3107000D+01 0.3107000D+01
EXPONENTS  0.3107000D+01 0.8550000D+00 0.8550000D+00 0.8550000D+00 0.8550000D+00
EXPONENTS  0.8550000D+00 0.8550000D+00 0.2920000D+00 0.2920000D+00 0.2920000D+00
EXPONENTS  0.2920000D+00 0.2920000D+00 0.2920000D+00 0.1917000D+01 0.1917000D+01
EXPONENTS  0.1917000D+01 0.1917000D+01 0.1917000D+01 0.1917000D+01 0.1917000D+01
EXPONENTS  0.1917000D+01 0.1917000D+01 0.1917000D+01 0.7240000D+00 0.7240000D+00
EXPONENTS  0.7240000D+00 0.7240000D+00 0.7240000D+00 0.7240000D+00 0.7240000D+00
EXPONENTS  0.7240000D+00 0.7240000D+00 0.7240000D+00 0.3387000D+02 0.5095000D+01
EXPONENTS  0.1159000D+01 0.3258000D+00 0.1027000D+00 0.2526000D-01 0.1407000D+01
EXPONENTS  0.1407000D+01 0.1407000D+01 0.3880000D+00 0.3880000D+00 0.3880000D+00
EXPONENTS  0.1020000D+00 0.1020000D+00 0.1020000D+00 0.1057000D+01 0.1057000D+01
EXPONENTS  0.1057000D+01 0.1057000D+01 0.1057000D+01 0.1057000D+01 0.2470000D+00
EXPONENTS  0.2470000D+00 0.2470000D+00 0.2470000D+00 0.2470000D+00 0.2470000D+00
MO    1     MO 0.0        OCC NO =    2.0000030  ORB. ENERGY =    0.000000
  0.49958181D+00  0.93113834D+00  0.15788759D+01  0.23894608D+01  0.29806640D+01
  0.25578532D+01  0.97952187D+00  0.52462752D-04  0.56289090D-03  0.20749218D-02
  0.60669497D-02  0.73109694D-02 -0.88068374D-02  0.45940491D-01 -0.11730221D-02
  0.18237222D-04  0.10601385D-01  0.10279778D-01  0.69346773D-02 -0.10215655D-01
 -0.99057486D-02 -0.66823595D-02 -0.27571733D-16 -0.26735307D-16 -0.18035480D-16
  0.12190002D-03 -0.54033709D-04 -0.25346488D-15  0.13923078D-03 -0.62911353D-04
 -0.49881179D-15  0.99043480D-05 -0.13485306D-05  0.32940882D-16 -0.27792414D-03
 -0.37286590D-04  0.31521073D-03 -0.89611212D-03  0.16513868D-14 -0.16455218D-14
  0.30667538D-03  0.93848495D-04 -0.40052388D-03  0.48461444D-03 -0.10969194D-14
  0.19934489D-14 -0.32926567D-05  0.21155045D-04 -0.17862388D-04 -0.36741533D-04
  0.35137728D-17  0.29661522D-16 -0.96409627D-05 -0.11899279D-04  0.11940808D-15
 -0.10912664D-04  0.52334490D-04 -0.42409301D-15  0.39835552D-04 -0.16636652D-04
  0.65868765D-16  0.14026893D-14  0.41396573D-04 -0.41133848D-04  0.17501642D-15
 -0.86503811D-05 -0.21120560D-04  0.18067576D-16 -0.11553934D-03  0.14452210D-03
 -0.54311684D-15  0.68695813D-15  0.19820783D-04  0.35747598D-04  0.52709813D-04
  0.53687206D-03  0.41568805D-04  0.89638093D-06 -0.16173655D-04  0.25395906D-04
 -0.22098410D-03 -0.18078052D-03  0.21537258D-03 -0.37473264D-03 -0.65722429D-05
  0.10492062D-04 -0.17859502D-04  0.30589557D-04  0.14616683D-05 -0.32051225D-04
  0.18503873D-03 -0.24426771D-03  0.29374817D-03 -0.15039299D-04 -0.12810615D-04
  0.27849914D-04 -0.38167992D-04  0.63090693D-04 -0.72178976D-04  0.19820783D-04
  0.35747598D-04  0.52709813D-04  0.53687206D-03  0.41568805D-04  0.89638093D-06
 -0.16173655D-04  0.25395906D-04  0.22098410D-03 -0.18078052D-03  0.21537258D-03
  0.37473264D-03 -0.65722429D-05  0.10492062D-04  0.17859502D-04  0.30589557D-04
  0.14616683D-05 -0.32051225D-04  0.18503873D-03  0.24426771D-03 -0.29374817D-03
 -0.15039299D-04 -0.12810615D-04  0.27849914D-04 -0.38167992D-04 -0.63090693D-04
  0.72178976D-04 -0.84386961D-02 -0.15729744D-01 -0.26665421D-01 -0.40375053D-01
 -0.50477709D-01 -0.43419881D-01 -0.16652459D-01 -0.53960725D-07 -0.71433896D-06
 -0.25946091D-05 -0.76968589D-05 -0.88690753D-05  0.10772813D-04 -0.76787471D-03
  0.18652728D-04 -0.12635644D-03  0.21070219D-04  0.20606214D-04  0.13615397D-04
 -0.97635713D-03 -0.95485595D-03 -0.63091370D-03 -0.41537167D-16 -0.40622442D-16
 -0.26840965D-16  0.25191634D-05 -0.14871770D-03  0.15899567D-16  0.59645932D-04
 -0.14757957D-03 -0.86692246D-16 -0.17322705D-05  0.36181217D-05  0.39520587D-17
  0.46368009D-04 -0.91922656D-04  0.45554647D-04  0.58386719D-04  0.32648679D-15
 -0.34344133D-15  0.13670334D-04 -0.28464482D-04  0.14794148D-04 -0.36990874D-04
  0.66847786D-16  0.34871271D-15 -0.21044720D-04  0.42048219D-04 -0.21003500D-04
 -0.21600850D-04  0.13019363D-16  0.20670474D-15  0.10353261D-04  0.11761479D-03
 -0.47132427D-15 -0.35324024D-04 -0.17988069D-03 -0.49574182D-15  0.42642399D-05
 -0.17296367D-03  0.19097146D-14  0.74601822D-15 -0.53170859D-05 -0.26419139D-04
  0.19076286D-15  0.19878266D-04  0.42085190D-04  0.18807382D-15 -0.39270081D-05
  0.37172226D-04 -0.76036240D-15 -0.16417693D-16 -0.34950022D-04 -0.63033804D-04
 -0.92943308D-04 -0.22296191D-03  0.60437636D-04  0.87976346D-06  0.23339337D-04
  0.15167618D-03 -0.72787236D-16 -0.46364226D-04  0.52420753D-04  0.56232870D-15
  0.57913534D-06  0.92847478D-04 -0.25436798D-16 -0.33792836D-04  0.84668537D-04
 -0.50875700D-04 -0.41440572D-06 -0.49145297D-16  0.72953616D-15 -0.10936429D-04
  0.18681472D-04 -0.77450423D-05 -0.50472239D-04 -0.14424811D-17 -0.33428231D-16
MO    2     MO 0.0        OCC NO =    2.0000015  ORB. ENERGY =    0.000000
  0.70486277D-02  0.13137483D-01  0.22276449D-01  0.33713036D-01  0.42054356D-01
  0.36088894D-01  0.13820129D-01  0.13719648D-06  0.14720282D-05  0.54261733D-05
  0.15865812D-04  0.19119075D-04 -0.23030952D-04  0.71689066D-03 -0.80778342D-03
 -0.20044322D-03  0.25319575D-03  0.24551470D-03  0.16562277D-03  0.23720659D-03
  0.23001060D-03  0.15516379D-03  0.14843498D-16  0.14393200D-16  0.97095678D-17
 -0.96929885D-04  0.17637426D-04  0.13023818D-15 -0.10394312D-03 -0.48870223D-04
  0.22674657D-15 -0.36869378D-05 -0.21442918D-04  0.25175686D-16 -0.11951836D-03
  0.13794373D-03 -0.18425375D-04 -0.40695174D-04  0.58015041D-15  0.76227087D-15
  0.99792947D-04 -0.77262591D-04 -0.22530356D-04  0.69811817D-04  0.57537548D-15
  0.23038333D-16 -0.37322259D-05  0.39046260D-04 -0.35314034D-04  0.44315775D-04
  0.97988630D-16 -0.34859487D-16  0.23339642D-04 -0.85771263D-04  0.83456341D-16
 -0.72551499D-04  0.96256715D-04  0.20579308D-15  0.25325740D-05  0.16105707D-03
 -0.45616210D-15 -0.11754668D-14  0.50020911D-05  0.11635835D-04 -0.53855778D-16
  0.22450385D-04 -0.36066898D-04  0.17471607D-15 -0.37456659D-04  0.11593912D-05
 -0.13148738D-16 -0.11746364D-15 -0.34563353D-05 -0.62336431D-05 -0.91915032D-05
  0.32377701D-03  0.61451359D-04 -0.15092283D-05 -0.24399317D-04  0.28034134D-04
 -0.21625093D-04 -0.51994911D-04  0.91689349D-04 -0.11671235D-03  0.13910253D-05
  0.85807232D-05 -0.29575391D-05 -0.17334251D-04  0.62117125D-05  0.11122538D-04
  0.53844153D-05  0.84857190D-04 -0.14622472D-04  0.54491772D-05 -0.90615781D-05
  0.36124008D-05 -0.14888350D-04 -0.75090064D-05 -0.14227772D-04 -0.34563353D-05
 -0.62336431D-05 -0.91915032D-05  0.32377701D-03  0.61451359D-04 -0.15092283D-05
 -0.24399317D-04  0.28034134D-04  0.21625093D-04 -0.51994911D-04  0.91689349D-04
  0.11671235D-03  0.13910253D-05  0.85807232D-05  0.29575391D-05 -0.17334251D-04
  0.62117125D-05  0.11122538D-04  0.53844153D-05 -0.84857190D-04  0.14622472D-04
  0.54491772D-05 -0.90615781D-05  0.36124008D-05 -0.14888350D-04  0.75090064D-05
  0.14227772D-04  0.59709596D+00  0.11129879D+01  0.18867625D+01  0.28568135D+01
  0.35716461D+01  0.30722561D+01  0.11782764D+01  0.50962785D-04  0.67465184D-03
  0.24504583D-02  0.72692382D-02  0.83763288D-02 -0.10174299D-01  0.55872560D-01
 -0.14528000D-03  0.15553696D-04 -0.29659198D-03 -0.29006048D-03 -0.19165522D-03
 -0.15228472D-01 -0.14893113D-01 -0.98405094D-02 -0.68164289D-15 -0.66663185D-15
 -0.44047185D-15  0.21286075D-04  0.11554661D-03  0.37851036D-15 -0.59173449D-05
 -0.79819561D-03  0.18224185D-15  0.35719716D-06 -0.76467165D-05  0.44894234D-18
 -0.15136312D-03  0.32507993D-03 -0.17371682D-03  0.37412840D-04 -0.11779451D-14
  0.33985155D-14  0.27774741D-03 -0.56221336D-03  0.28446595D-03 -0.50557827D-04
 -0.38147249D-15 -0.29138741D-15 -0.92691131D-04  0.19125566D-03 -0.98564532D-04
  0.70014089D-05  0.22046882D-16 -0.11684960D-15 -0.10962129D-04  0.56417670D-03
  0.23936428D-15  0.45715651D-04 -0.81325330D-03  0.26917958D-15 -0.12829263D-04
 -0.87927678D-03 -0.98727243D-15  0.78136551D-15 -0.56548892D-06 -0.39481832D-04
 -0.15507458D-15  0.17889847D-05  0.49994648D-04 -0.15986794D-15 -0.92517968D-07
  0.68450849D-04  0.62509168D-15 -0.10643788D-15  0.81498148D-04  0.14698527D-03
  0.21672969D-03 -0.51081842D-03  0.33912189D-03  0.65604200D-05  0.38297041D-04
  0.92683249D-03 -0.22990919D-15 -0.18173925D-04  0.32544523D-03 -0.36680794D-15
 -0.95323878D-06 -0.11009665D-03  0.56127967D-17 -0.13334381D-03  0.26986223D-03
 -0.13651842D-03  0.31611756D-04 -0.61253998D-16 -0.11970255D-14 -0.13607339D-03
  0.26484973D-03 -0.12877633D-03  0.85595635D-05 -0.35053966D-16 -0.28887050D-16
MO    3     MO 0.0        OCC NO =    1.9854693  ORB. ENERGY =    0.000000
 -0.52773700D-02 -0.98361499D-02 -0.16678574D-01 -0.25241249D-01 -0.31486468D-01
 -0.27020074D-01 -0.10347253D-01 -0.95833964D-04 -0.10282355D-02 -0.37902698D-02
 -0.11082527D-01 -0.13354983D-01  0.16087493D-01  0.85311468D-02  0.54436666D-02
  0.88161906D-04  0.47638907D-02  0.46193715D-02  0.31162007D-02  0.53838422D-01
  0.52205160D-01  0.35217292D-01  0.37630456D-14  0.36488884D-14  0.24615185D-14
  0.14339914D-02  0.12778639D-01  0.11464426D-14  0.24929542D-03  0.18195787D-02
  0.60307365D-15  0.49325856D-05  0.81986220D-05  0.28064383D-16  0.12914209D-03
 -0.91046870D-03  0.78132660D-03  0.92290265D-03  0.48672471D-15 -0.29715008D-15
 -0.12841542D-04 -0.22196105D-03  0.23480260D-03  0.29779565D-04  0.35319686D-15
 -0.97273615D-15 -0.36355843D-04  0.73705211D-04 -0.37349368D-04  0.64405438D-04
  0.70798517D-16 -0.94767405D-15  0.13344511D-04  0.29087239D-03  0.14610801D-16
 -0.68562450D-03 -0.60229597D-03  0.79889917D-15  0.64559097D-03 -0.27032119D-03
 -0.84273157D-15  0.14105336D-16 -0.20461481D-04 -0.22833851D-04 -0.77178211D-16
  0.76213143D-04  0.28425649D-04 -0.82363029D-16 -0.14828699D-04  0.40075905D-04
  0.31389766D-15 -0.72980908D-15  0.33319749D-03  0.60093540D-03  0.88607889D-03
 -0.47431570D-03 -0.37239108D-03  0.46032739D-05 -0.20547997D-03  0.97417978D-03
 -0.43098584D-03  0.15878373D-03  0.46967260D-03  0.24868535D-03  0.35821426D-04
  0.34497062D-04  0.39299970D-04 -0.27496146D-04  0.17317505D-03 -0.14567890D-03
 -0.10679706D-03 -0.10319910D-03 -0.34727005D-03  0.74771665D-05  0.12733051D-04
 -0.20210218D-04 -0.30108653D-04 -0.50747034D-04 -0.76375725D-04  0.33319749D-03
  0.60093540D-03  0.88607889D-03 -0.47431570D-03 -0.37239108D-03  0.46032739D-05
 -0.20547997D-03  0.97417978D-03  0.43098584D-03  0.15878373D-03  0.46967260D-03
 -0.24868535D-03  0.35821426D-04  0.34497062D-04 -0.39299970D-04 -0.27496146D-04
  0.17317505D-03 -0.14567890D-03 -0.10679706D-03  0.10319910D-03  0.34727005D-03
  0.74771665D-05  0.12733051D-04 -0.20210218D-04 -0.30108653D-04  0.50747034D-04
  0.76375725D-04 -0.13018135D+00 -0.24265825D+00 -0.41135980D+00 -0.62285437D+00
 -0.77870514D+00 -0.66982606D+00 -0.25689271D+00 -0.18706336D-02 -0.24763686D-01
 -0.89946214D-01 -0.26682375D+00 -0.30746048D+00  0.37345655D+00  0.21646263D+00
  0.10892583D+00  0.75407215D-02  0.26650914D-02  0.26064012D-02  0.17221594D-02
  0.19222742D+00  0.18799422D+00  0.12421573D+00 -0.65284996D-14 -0.63847300D-14
 -0.42186611D-14  0.46079960D-03  0.35168591D-01 -0.11769341D-14  0.39076728D-04
  0.62850624D-02  0.75543129D-15 -0.11860168D-04 -0.19682398D-03 -0.28475567D-16
 -0.81621083D-02  0.16312268D-01 -0.81501593D-02  0.11789701D-02 -0.10368181D-14
  0.20810614D-14 -0.30244168D-02  0.60038850D-02 -0.29794682D-02  0.41320401D-03
  0.17107564D-16 -0.72705196D-15 -0.97874194D-05  0.97566366D-05  0.30782869D-07
  0.42242581D-04 -0.62527150D-16 -0.46100236D-15  0.19795179D-03 -0.60232473D-02
  0.28500323D-15 -0.77974978D-03  0.90104430D-02  0.22689273D-15  0.18589441D-03
  0.90592989D-02 -0.10819024D-14  0.83102884D-17 -0.38593414D-05  0.35808558D-03
 -0.17784809D-15  0.86411727D-05 -0.52066376D-03 -0.16460568D-15  0.29368514D-05
 -0.55359299D-03  0.69814993D-15  0.30754156D-15  0.13298001D-01  0.23983492D-01
  0.35363645D-01  0.86253218D-03 -0.61332801D-02 -0.68349399D-04  0.57447516D-03
  0.24551591D-01  0.13135012D-15  0.25352870D-04 -0.91980778D-03 -0.94813158D-15
 -0.21276804D-05 -0.14031972D-02  0.36595294D-16 -0.14599035D-02  0.28678983D-02
 -0.14079948D-02  0.15532577D-03 -0.16887568D-15 -0.69540640D-15  0.71812432D-04
 -0.15931831D-03  0.87505880D-04  0.43974330D-04  0.20921653D-16 -0.80246037D-15
MO    4     MO 0.0        OCC NO =    1.9808738  ORB. ENERGY =    0.000000
 -0.10124891D+00 -0.18871131D+00 -0.31998655D+00 -0.48426562D+00 -0.60408319D+00
 -0.51839325D+00 -0.19851707D+00 -0.17468995D-02 -0.18743085D-01 -0.69090541D-01
 -0.20201669D+00 -0.24343993D+00  0.29324920D+00  0.15500058D+00  0.82269234D-01
  0.54544218D-02 -0.71073852D-01 -0.68917729D-01 -0.46491493D-01  0.49268670D-01
  0.47774037D-01  0.32228083D-01  0.70952047D-14  0.68799618D-14  0.46411816D-14
 -0.11891601D-01  0.75322028D-02 -0.39390178D-14 -0.48186691D-02  0.34047507D-02
 -0.93090110D-14 -0.28114783D-04  0.15481088D-04 -0.11643908D-14 -0.13078123D-01
 -0.65712026D-02  0.19649325D-01 -0.17351014D-01  0.98546872D-15 -0.55585913D-14
 -0.40288590D-02 -0.32423642D-03  0.43530955D-02 -0.61022942D-02 -0.33840995D-14
  0.55252881D-14  0.45807295D-04  0.19190514D-03 -0.23771244D-03 -0.13081553D-04
 -0.24263723D-14  0.30066951D-14 -0.37434521D-02  0.47291553D-02  0.22489713D-15
  0.23117049D-03  0.21790690D-03  0.15841779D-14  0.10999186D-01 -0.14405373D-01
 -0.22588693D-14  0.64928650D-14  0.20726347D-05  0.12450510D-03  0.82091516D-16
  0.30909579D-03 -0.35327593D-03  0.67005707D-16 -0.31531369D-03 -0.20239359D-04
 -0.31328026D-15  0.17524436D-14  0.17575410D-01  0.31697977D-01  0.46738648D-01
  0.11968273D-01 -0.34420377D-02 -0.66606581D-04 -0.10832681D-01  0.12043222D-01
 -0.17817432D-01 -0.16641108D-02  0.19697512D-02 -0.32979155D-03  0.76149747D-04
 -0.10715574D-03  0.48840456D-03 -0.26197822D-03  0.19993821D-03  0.62040005D-04
 -0.21428512D-02  0.30895150D-02 -0.35492688D-02  0.85493027D-04  0.10787293D-03
 -0.19336596D-03  0.74468467D-04 -0.13725239D-03  0.11578151D-03  0.17575410D-01
  0.31697977D-01  0.46738648D-01  0.11968273D-01 -0.34420377D-02 -0.66606581D-04
 -0.10832681D-01  0.12043222D-01  0.17817432D-01 -0.16641108D-02  0.19697512D-02
  0.32979155D-03  0.76149747D-04 -0.10715574D-03 -0.48840456D-03 -0.26197822D-03
  0.19993821D-03  0.62040005D-04 -0.21428512D-02 -0.30895150D-02  0.35492688D-02
  0.85493027D-04  0.10787293D-03 -0.19336596D-03  0.74468467D-04  0.13725239D-03
 -0.11578151D-03  0.82071123D-02  0.15298071D-01  0.25933639D-01  0.39267037D-01
  0.49092445D-01  0.42228306D-01  0.16195464D-01  0.13153247D-03  0.17412436D-02
  0.63245135D-02  0.18761550D-01  0.21618897D-01 -0.26259371D-01 -0.15082840D-01
 -0.13215212D-01 -0.44139739D-02 -0.34819338D-02 -0.34052552D-02 -0.22499961D-02
 -0.15932716D+00 -0.15581848D+00 -0.10295586D+00  0.40535642D-14  0.39642972D-14
  0.26193788D-14 -0.68490609D-03 -0.32563584D-01  0.20479006D-14  0.26756798D-03
 -0.44477550D-02 -0.19388710D-14  0.11220242D-04  0.36978896D-03 -0.13425378D-15
 -0.35415781D-02  0.70526269D-02 -0.35110488D-02  0.85232153D-03 -0.57974732D-15
  0.11009090D-14 -0.30137979D-03  0.61164962D-03 -0.31026983D-03 -0.75183862D-04
 -0.13588137D-15 -0.31014496D-15 -0.28768774D-03  0.57457504D-03 -0.28688730D-03
 -0.11151728D-03 -0.21557671D-15  0.11769137D-14  0.56665367D-04 -0.58003951D-03
 -0.70147164D-15 -0.22092860D-03  0.88671859D-03 -0.69397037D-15  0.50932496D-04
  0.85339995D-03  0.27983853D-14  0.16262023D-14 -0.36458036D-04  0.24216360D-04
  0.25975598D-15  0.14413225D-03 -0.37454407D-04  0.27648320D-15 -0.34758143D-04
 -0.35194672D-04 -0.10557511D-14  0.28806929D-16  0.44562953D-02  0.80371122D-02
  0.11850717D-01  0.77490639D-02  0.56146558D-02 -0.33324037D-04 -0.14213652D-04
 -0.65324021D-03 -0.15465954D-15 -0.38351667D-03 -0.10638612D-02  0.14563912D-14
  0.11921554D-04  0.12404170D-02  0.84980556D-15 -0.24140147D-02  0.48196569D-02
 -0.24056422D-02  0.11224897D-03 -0.25713795D-15  0.54204667D-15 -0.67858551D-03
  0.13265162D-02 -0.64793069D-03 -0.19326836D-03  0.41610494D-15  0.10117915D-14
MO    5     MO 0.0        OCC NO =    1.9714954  ORB. ENERGY =    0.000000
 -0.25467701D-03 -0.47467607D-03 -0.80487998D-03 -0.12181003D-02 -0.15194841D-02
 -0.13039434D-02 -0.49934104D-03 -0.66794739D-05 -0.71666371D-04 -0.26417574D-03
 -0.77243436D-03 -0.93082097D-03  0.11212725D-02  0.70276814D-03  0.13837728D-02
 -0.18885288D-03 -0.85728404D-01 -0.83127714D-01 -0.56077465D-01 -0.38762126D-01
 -0.37586223D-01 -0.25355444D-01  0.11628869D-14  0.11276091D-14  0.76067843D-15
 -0.19869224D-01 -0.96201669D-02  0.78857126D-15 -0.33818839D-02 -0.17449107D-02
 -0.28855491D-16  0.38901022D-04 -0.92681859D-04  0.32887555D-17 -0.16711898D-02
  0.13958283D-02  0.27536152D-03 -0.10048181D-02 -0.11892354D-15 -0.23736349D-16
 -0.40402230D-03  0.21157370D-03  0.19244860D-03 -0.67170203D-03  0.58796889D-15
 -0.33549352D-15 -0.17413355D-03  0.24661983D-03 -0.72486275D-04 -0.10034081D-02
 -0.45827535D-16  0.44477256D-16  0.16982045D-03 -0.23650962D-03  0.25904892D-15
  0.44461509D-03  0.13608957D-02 -0.10966405D-15 -0.95407645D-03 -0.65136683D-03
 -0.66748271D-15 -0.25739511D-14  0.13326370D-03  0.39427020D-04 -0.28977954D-16
 -0.34564252D-03 -0.88076513D-04  0.46010252D-16 -0.54148594D-04 -0.30204546D-04
  0.40923611D-16  0.16025700D-15 -0.33779549D-03 -0.60922808D-03 -0.89830644D-03
 -0.10237116D-02 -0.53540699D-04 -0.79516432D-06 -0.99482207D-03 -0.95189856D-03
  0.31042848D-03 -0.39497405D-03 -0.10392032D-03  0.53601684D-03 -0.85034826D-04
 -0.13538857D-04  0.12275859D-04  0.17314292D-03  0.37812985D-04 -0.21095591D-03
 -0.89656364D-04  0.31496266D-03  0.58883354D-03  0.12350019D-03 -0.12558194D-03
  0.20817510D-05  0.11735222D-03  0.78577505D-04 -0.18644520D-04 -0.33779549D-03
 -0.60922808D-03 -0.89830644D-03 -0.10237116D-02 -0.53540699D-04 -0.79516432D-06
 -0.99482207D-03 -0.95189856D-03 -0.31042848D-03 -0.39497405D-03 -0.10392032D-03
 -0.53601684D-03 -0.85034826D-04 -0.13538857D-04 -0.12275859D-04  0.17314292D-03
  0.37812985D-04 -0.21095591D-03 -0.89656364D-04 -0.31496266D-03 -0.58883354D-03
  0.12350019D-03 -0.12558194D-03  0.20817510D-05  0.11735222D-03 -0.78577505D-04
  0.18644520D-04 -0.21798686D-03 -0.40632788D-03 -0.68881628D-03 -0.10429610D-02
 -0.13039310D-02 -0.11216144D-02 -0.43016328D-03 -0.47081985D-05 -0.62327732D-04
 -0.22638566D-03 -0.67156880D-03 -0.77384740D-03  0.93995293D-03  0.62308461D-03
  0.72957244D-03  0.62099299D-03 -0.25630396D+01 -0.25065968D+01 -0.16562145D+01
  0.94539464D-01  0.92457531D-01  0.61090600D-01  0.44107881D-14  0.43136544D-14
  0.28502139D-14 -0.58323594D+00  0.21379136D-01  0.47604071D-15 -0.91226224D-01
  0.33478123D-02  0.10808883D-15 -0.23448582D-02  0.25173980D-04  0.53963019D-17
  0.21730247D-02 -0.30678058D-02  0.89478106D-03  0.71804144D-01  0.30032467D-14
  0.33776830D-14  0.63527268D-03 -0.79491448D-03  0.15964180D-03  0.23384735D-01
 -0.34150732D-15 -0.14118679D-15  0.49843086D-04 -0.13621711D-03  0.86374025D-04
  0.23601945D-02  0.11195508D-15  0.34838724D-16  0.82403456D-02  0.10680575D-02
 -0.78358296D-16 -0.33096757D-01 -0.25779249D-02 -0.70515715D-16  0.83757201D-02
 -0.62624750D-03  0.30559060D-15  0.26143154D-14  0.96349737D-03  0.78267731D-04
  0.30185872D-17 -0.37058205D-02 -0.22590787D-03 -0.22325872D-17  0.81532836D-03
 -0.88953211D-05 -0.68231745D-17 -0.31536096D-15 -0.77341443D-03 -0.13948848D-02
 -0.20567568D-02 -0.10026092D-02 -0.56641016D-03 -0.82668189D-06 -0.25472540D-01
 -0.51945249D-04 -0.16369296D-15 -0.10369296D-01  0.74349080D-03  0.14251972D-15
 -0.11419778D-02 -0.30328748D-03 -0.83299762D-17 -0.14332846D-03  0.13093541D-04
  0.13023492D-03 -0.15415655D-01  0.11948132D-15 -0.16437514D-15 -0.40686797D-04
 -0.26337553D-04  0.67024350D-04 -0.18016665D-02 -0.46406271D-16  0.41485909D-16
MO    6     MO 0.0        OCC NO =    1.9714089  ORB. ENERGY =    0.000000
  0.12354406D-15  0.23026582D-15  0.39044806D-15  0.59090162D-15  0.73710319D-15
  0.63254420D-15  0.24223083D-15  0.52346933D-17  0.56164824D-16  0.20703412D-15
  0.60535561D-15  0.72948294D-15 -0.87873951D-15 -0.50496140D-15 -0.53448571D-15
 -0.49566998D-15  0.95918684D-15  0.93008858D-15  0.62743226D-15 -0.15260745D-14
 -0.14797789D-14 -0.99825010D-15  0.29404940D-01  0.28512901D-01  0.19234635D-01
  0.19215254D-15 -0.19347236D-15  0.64929659D-02 -0.15080522D-16 -0.41595518D-15
  0.11405337D-02 -0.85126795D-18 -0.10506678D-15 -0.33271465D-04  0.15898054D-16
  0.42709097D-16 -0.58607151D-16  0.75126453D-16  0.16763729D-02  0.10975886D-02
  0.28516566D-17  0.92699266D-16 -0.95550922D-16 -0.79068044D-16  0.39053951D-03
  0.28799195D-03 -0.17917866D-16  0.64636310D-16 -0.46718444D-16 -0.83902738D-16
  0.68936126D-04  0.84049959D-03  0.89499816D-17  0.21710025D-16  0.86138460D-04
  0.10397077D-16 -0.63963681D-16 -0.13813753D-03 -0.37247022D-16 -0.11663941D-17
 -0.12027785D-03 -0.34960703D-03 -0.66380691D-17 -0.17761832D-16 -0.57555310D-04
  0.60789185D-16  0.40983978D-16 -0.17397240D-03 -0.40874978D-16  0.12301517D-16
  0.34663833D-03 -0.76006688D-04  0.58989436D-03  0.10638988D-02  0.15687181D-02
  0.65319622D-03  0.26785091D-03 -0.62503705D-04 -0.11962813D-03  0.56650840D-03
 -0.20024295D-03 -0.26952798D-03 -0.13178610D-04 -0.11131841D-03 -0.22166543D-04
  0.69218553D-04 -0.62750959D-04  0.40863621D-04 -0.10499344D-03  0.64129824D-04
 -0.24518699D-03  0.12796432D-03 -0.31590379D-03 -0.40101700D-04  0.13198120D-03
 -0.91879496D-04  0.30501724D-04  0.43634249D-04 -0.14352886D-03 -0.58989436D-03
 -0.10638988D-02 -0.15687181D-02 -0.65319622D-03 -0.26785091D-03  0.62503705D-04
  0.11962813D-03 -0.56650840D-03 -0.20024295D-03  0.26952798D-03  0.13178610D-04
 -0.11131841D-03  0.22166543D-04 -0.69218553D-04 -0.62750959D-04 -0.40863621D-04
  0.10499344D-03 -0.64129824D-04  0.24518699D-03  0.12796432D-03 -0.31590379D-03
  0.40101700D-04 -0.13198120D-03  0.91879496D-04 -0.30501724D-04  0.43634249D-04
 -0.14352886D-03 -0.41685372D-15 -0.77701605D-15 -0.13172153D-14 -0.19944421D-14
 -0.24934919D-14 -0.21448502D-14 -0.82259621D-15 -0.30712681D-17 -0.40657838D-16
 -0.14767667D-15 -0.43808005D-15 -0.50479877D-15  0.61315330D-15  0.32510030D-15
  0.22561648D-14  0.20100067D-14  0.25099746D-14  0.24547003D-14  0.16219243D-14
 -0.19791718D-13 -0.19355868D-13 -0.12789240D-13  0.25686550D+01  0.25120885D+01
  0.16598431D+01  0.51957007D-15 -0.58220238D-14  0.58442870D+00  0.17225605D-15
 -0.16495366D-14  0.91500340D-01  0.39981740D-17 -0.20733409D-15  0.23624875D-02
 -0.31245064D-15  0.64500257D-15 -0.33255193D-15 -0.78439600D-16 -0.12011154D-02
 -0.72295541D-01 -0.39904272D-15  0.79607576D-15 -0.39703303D-15  0.23467954D-16
 -0.52481950D-03 -0.23325623D-01 -0.56176530D-16  0.10935057D-15 -0.53174041D-16
 -0.48837489D-16  0.87907655D-04 -0.24456185D-02  0.98246718D-17 -0.54390548D-15
 -0.82926202D-02 -0.41903833D-16  0.88283990D-15 -0.81543403D-02  0.12429818D-16
  0.74887654D-15  0.33032201D-01  0.21663383D-02 -0.85918308D-17 -0.16630518D-16
 -0.88802726D-03  0.35162957D-16  0.46821368D-16 -0.10373072D-02 -0.93874645D-17
  0.30701876D-17  0.37013890D-02  0.12034609D-03  0.45351906D-15  0.81794030D-15
  0.12060525D-14 -0.11934514D-14 -0.18813039D-14  0.16857143D-16  0.47883842D-16
  0.13251321D-15  0.25393566D-01 -0.90321207D-16 -0.13607141D-14  0.10443997D-01
 -0.31328435D-16 -0.65272696D-15  0.11561270D-02  0.31282309D-15 -0.61360539D-15
  0.30078231D-15 -0.25244598D-16  0.31518815D-03  0.15674360D-01  0.81967283D-16
 -0.15937533D-15  0.77408045D-16 -0.87993128D-16  0.55352008D-04  0.18061131D-02
MO    7     MO 0.0        OCC NO =    1.9677666  ORB. ENERGY =    0.000000
  0.92219742D-02  0.17188244D-01  0.29145082D-01  0.44107983D-01  0.55021232D-01
  0.47216403D-01  0.18081374D-01  0.14420842D-03  0.15472617D-02  0.57034979D-02
  0.16676693D-01  0.20096226D-01 -0.24208034D-01 -0.13205619D-01 -0.52634754D-02
 -0.71508012D-03  0.31637092D+00  0.30677337D+00  0.20694750D+00  0.72990091D+00
  0.70775835D+00  0.47744960D+00  0.41435129D-15  0.40178137D-15  0.27103934D-15
  0.75119707D-01  0.17436533D+00  0.35504110D-14  0.14536881D-01  0.19712285D-01
  0.61824991D-14  0.33586601D-03  0.13504243D-03  0.51513115D-15  0.13395127D-01
 -0.69167488D-02 -0.64783780D-02  0.18325180D-01  0.35391607D-15 -0.22534668D-15
  0.29003461D-02 -0.94098322D-03 -0.19593629D-02  0.46418976D-02  0.15910408D-14
 -0.26965074D-14  0.10423938D-03 -0.25074713D-03  0.14650775D-03 -0.77046027D-04
  0.94714134D-15 -0.18318730D-14  0.17601841D-02  0.26934517D-03 -0.67297668D-15
 -0.83628362D-02 -0.95394674D-02 -0.22220579D-14  0.30822840D-02  0.87314319D-02
  0.42409880D-14  0.13278377D-15 -0.12089976D-03  0.51004107D-04  0.76348870D-16
  0.39129329D-03 -0.26267305D-03 -0.94993725D-16 -0.28594030D-04  0.10966073D-03
 -0.13405289D-15 -0.75930073D-15 -0.76698913D-02 -0.13832965D-01 -0.20396698D-01