 MP2/6-311++G** opted
GAUSSIAN             92 MOL ORBITALS    126 PRIMITIVES        3 NUCLEI
  O    1    (CENTRE  1)   0.00000000  0.00000000  0.22193101  CHARGE =  8.0
  H    2    (CENTRE  2)   0.00000000  1.43719909 -0.88772406  CHARGE =  1.0
  H    3    (CENTRE  3)   0.00000000 -1.43719909 -0.88772406  CHARGE =  1.0
CENTRE ASSIGNMENTS    1  1  1  1  1  1  1  1  1  1  1  1  1  1  1  1  1  1  1  1
CENTRE ASSIGNMENTS    1  1  1  1  1  1  1  1  1  1  1  1  1  1  1  1  1  1  1  1
CENTRE ASSIGNMENTS    1  1  1  1  1  1  1  1  1  1  1  1  1  1  1  1  1  1  1  1
CENTRE ASSIGNMENTS    1  1  1  1  1  1  1  1  1  1  1  1  2  2  2  2  2  2  2  2
CENTRE ASSIGNMENTS    2  2  2  2  2  2  2  2  2  2  2  2  2  2  2  2  2  2  2  3
CENTRE ASSIGNMENTS    3  3  3  3  3  3  3  3  3  3  3  3  3  3  3  3  3  3  3  3
CENTRE ASSIGNMENTS    3  3  3  3  3  3
TYPE ASSIGNMENTS      1  1  1  1  1  1  1  1  1  1  1  1  1  1  1  1  2  2  2  3
TYPE ASSIGNMENTS      3  3  4  4  4  2  3  4  2  3  4  2  3  4  5  6  7  8  9 10
TYPE ASSIGNMENTS      5  6  7  8  9 10  5  6  7  8  9 10 11 12 13 17 14 15 18 19
TYPE ASSIGNMENTS     16 20 11 12 13 17 14 15 18 19 16 20  1  1  1  1  1  1  2  3
TYPE ASSIGNMENTS      4  2  3  4  2  3  4  5  6  7  8  9 10  5  6  7  8  9 10  1
TYPE ASSIGNMENTS      1  1  1  1  1  2  3  4  2  3  4  2  3  4  5  6  7  8  9 10
TYPE ASSIGNMENTS      5  6  7  8  9 10
EXPONENTS  0.1533000D+05 0.2299000D+04 0.5224000D+03 0.1473000D+03 0.4755000D+02
EXPONENTS  0.1676000D+02 0.6207000D+01 0.5224000D+03 0.1473000D+03 0.4755000D+02
EXPONENTS  0.1676000D+02 0.6207000D+01 0.6882000D+00 0.1752000D+01 0.2384000D+00
EXPONENTS  0.7376000D-01 0.3446000D+02 0.7749000D+01 0.2280000D+01 0.3446000D+02
EXPONENTS  0.7749000D+01 0.2280000D+01 0.3446000D+02 0.7749000D+01 0.2280000D+01
EXPONENTS  0.7156000D+00 0.7156000D+00 0.7156000D+00 0.2140000D+00 0.2140000D+00
EXPONENTS  0.2140000D+00 0.5974000D-01 0.5974000D-01 0.5974000D-01 0.2314000D+01
EXPONENTS  0.2314000D+01 0.2314000D+01 0.2314000D+01 0.2314000D+01 0.2314000D+01
EXPONENTS  0.6450000D+00 0.6450000D+00 0.6450000D+00 0.6450000D+00 0.6450000D+00
EXPONENTS  0.6450000D+00 0.2140000D+00 0.2140000D+00 0.2140000D+00 0.2140000D+00
EXPONENTS  0.2140000D+00 0.2140000D+00 0.1428000D+01 0.1428000D+01 0.1428000D+01
EXPONENTS  0.1428000D+01 0.1428000D+01 0.1428000D+01 0.1428000D+01 0.1428000D+01
EXPONENTS  0.1428000D+01 0.1428000D+01 0.5000000D+00 0.5000000D+00 0.5000000D+00
EXPONENTS  0.5000000D+00 0.5000000D+00 0.5000000D+00 0.5000000D+00 0.5000000D+00
EXPONENTS  0.5000000D+00 0.5000000D+00 0.3387000D+02 0.5095000D+01 0.1159000D+01
EXPONENTS  0.3258000D+00 0.1027000D+00 0.2526000D-01 0.1407000D+01 0.1407000D+01
EXPONENTS  0.1407000D+01 0.3880000D+00 0.3880000D+00 0.3880000D+00 0.1020000D+00
EXPONENTS  0.1020000D+00 0.1020000D+00 0.1057000D+01 0.1057000D+01 0.1057000D+01
EXPONENTS  0.1057000D+01 0.1057000D+01 0.1057000D+01 0.2470000D+00 0.2470000D+00
EXPONENTS  0.2470000D+00 0.2470000D+00 0.2470000D+00 0.2470000D+00 0.3387000D+02
EXPONENTS  0.5095000D+01 0.1159000D+01 0.3258000D+00 0.1027000D+00 0.2526000D-01
EXPONENTS  0.1407000D+01 0.1407000D+01 0.1407000D+01 0.3880000D+00 0.3880000D+00
EXPONENTS  0.3880000D+00 0.1020000D+00 0.1020000D+00 0.1020000D+00 0.1057000D+01
EXPONENTS  0.1057000D+01 0.1057000D+01 0.1057000D+01 0.1057000D+01 0.1057000D+01
EXPONENTS  0.2470000D+00 0.2470000D+00 0.2470000D+00 0.2470000D+00 0.2470000D+00
EXPONENTS  0.2470000D+00
MO    1     MO 0.0        OCC NO =    2.0000034  ORB. ENERGY =    0.000000
  0.49972145D+00  0.93139861D+00  0.15793172D+01  0.23901287D+01  0.29814972D+01
  0.25585681D+01  0.97979567D+00  0.54068825D-04  0.58012301D-03  0.21384426D-02
  0.62526808D-02  0.75347844D-02 -0.90764463D-02  0.45734925D-01 -0.95033857D-03
 -0.54666465D-04 -0.58624892D-14 -0.56846425D-14 -0.38348263D-14  0.11860129D-14
  0.11500336D-14  0.77580585D-15 -0.15972829D-01 -0.15488271D-01 -0.10448296D-01
 -0.13756470D-14 -0.32614196D-14 -0.18881807D-03 -0.21713198D-15 -0.31167548D-14
 -0.34610625D-03 -0.47716486D-17 -0.68716881D-16 -0.11164205D-04 -0.53444150D-03
  0.27668379D-03  0.25775771D-03 -0.69225469D-18  0.62104972D-16  0.98769118D-15
  0.39122451D-03 -0.39683488D-03  0.56103721D-05  0.40572401D-15  0.83795793D-16
  0.21228824D-14 -0.21720707D-04  0.66708648D-05  0.15049842D-04  0.11532746D-15
  0.67482432D-17  0.91136294D-15  0.32716563D-16  0.39107539D-15  0.18541468D-04
 -0.11601704D-16 -0.73627768D-15 -0.89341843D-04 -0.86547984D-16 -0.43694849D-15
  0.33717438D-04  0.16450113D-16 -0.13658700D-18 -0.13656151D-15 -0.28108618D-04
  0.96395250D-17  0.35964322D-15 -0.44463693D-04 -0.92297640D-17  0.50041305D-16
  0.12878955D-03 -0.35231536D-15  0.19096474D-04  0.34441278D-04  0.50783644D-04
  0.31992567D-03  0.34251076D-04  0.22180777D-05 -0.42270128D-16 -0.21121974D-03
  0.88058958D-05 -0.34290807D-15 -0.30922689D-03  0.21950640D-03 -0.35846012D-16
 -0.14386274D-04  0.26277869D-05  0.11820173D-03 -0.36454949D-04 -0.81746779D-04
  0.38807876D-15 -0.26828918D-15  0.41252353D-03 -0.34801108D-04  0.29252237D-04
  0.55488716D-05  0.70202044D-16 -0.56983398D-16 -0.10000533D-03  0.19096474D-04
  0.34441278D-04  0.50783644D-04  0.31992567D-03  0.34251076D-04  0.22180777D-05
 -0.11812917D-15  0.21121974D-03  0.88058958D-05  0.24302455D-15  0.30922689D-03
  0.21950640D-03  0.22619071D-16  0.14386274D-04  0.26277869D-05  0.11820173D-03
 -0.36454949D-04 -0.81746779D-04  0.25989964D-15  0.22138564D-15 -0.41252353D-03
 -0.34801108D-04  0.29252237D-04  0.55488716D-05  0.56334399D-16  0.51784363D-16
  0.10000533D-03
MO    2     MO 0.0        OCC NO =    1.9807449  ORB. ENERGY =    0.000000
 -0.10212063D+00 -0.19033606D+00 -0.32274154D+00 -0.48843501D+00 -0.60928417D+00
 -0.52285647D+00 -0.20022625D+00 -0.17687635D-02 -0.18977672D-01 -0.69955271D-01
 -0.20454511D+00 -0.24648680D+00  0.29691947D+00  0.15779100D+00  0.85585026D-01
  0.55393905D-02 -0.22948695D-14 -0.22252515D-14 -0.15011415D-14 -0.79916331D-15
 -0.77491958D-15 -0.52275617D-15  0.96930550D-01  0.93990028D-01  0.63405118D-01
 -0.14955679D-15  0.14733510D-13  0.14402870D-01  0.36451904D-15  0.16446705D-13
  0.67847514D-02  0.14516762D-16  0.16718884D-14  0.58416122D-04 -0.18731074D-01
  0.20710927D-01 -0.19798537D-02 -0.43473235D-14  0.22567375D-15 -0.27759181D-14
 -0.56454825D-02  0.56538662D-02 -0.83837591D-05  0.43093974D-14 -0.49058648D-15
 -0.81865611D-14  0.26456399D-03 -0.16188886D-03 -0.10267513D-03  0.10625997D-14
 -0.13585386D-15 -0.14634540D-14  0.51178139D-16 -0.12898722D-14  0.32978835D-02
 -0.51289513D-16 -0.60161936D-15  0.79407325D-02 -0.10224490D-15  0.44712358D-14
 -0.17834383D-01  0.60561001D-16 -0.11100980D-15  0.13838540D-14 -0.14580085D-03
  0.23646494D-15 -0.11021096D-14  0.74570472D-04  0.96564451D-16 -0.30494524D-14
  0.36283206D-03 -0.34027626D-14  0.17564100D-01  0.31677577D-01  0.46708569D-01
  0.11364906D-01 -0.37411102D-02 -0.87304158D-04  0.18721403D-15 -0.17633017D-01
  0.16349448D-01 -0.31893522D-14 -0.43365239D-04  0.20189511D-02 -0.31529898D-15
  0.51273178D-03 -0.13117967D-03 -0.99896290D-03  0.12856970D-03  0.87039320D-03
  0.36157015D-14 -0.27147426D-14 -0.40840043D-02  0.16443353D-03 -0.19447920D-03
  0.30045663D-04  0.67528238D-15 -0.57094673D-15  0.31734027D-03  0.17564100D-01
  0.31677577D-01  0.46708569D-01  0.11364906D-01 -0.37411102D-02 -0.87304158D-04
 -0.62763986D-16  0.17633017D-01  0.16349448D-01  0.22755055D-14  0.43365239D-04
  0.20189511D-02  0.21752460D-15 -0.51273178D-03 -0.13117967D-03 -0.99896290D-03
  0.12856970D-03  0.87039320D-03  0.26523732D-14  0.19028736D-14  0.40840043D-02
  0.16443353D-03 -0.19447920D-03  0.30045663D-04  0.47280934D-15  0.42835986D-15
 -0.31734027D-03
MO    3     MO 0.0        OCC NO =    1.9644185  ORB. ENERGY =    0.000000
  0.21786150D-14  0.40605802D-14  0.68852843D-14  0.10420146D-13  0.12998310D-13
  0.11154484D-13  0.42715748D-14 -0.10480788D-17 -0.11245198D-16 -0.41451917D-16
 -0.12120297D-15 -0.14605548D-15  0.17593930D-15 -0.15991309D-14  0.70837393D-14
  0.16430610D-14  0.17452368D+01  0.16922926D+01  0.11416106D+01  0.28352529D-12
  0.27492416D-12  0.18546221D-12 -0.59661959D-13 -0.57852031D-13 -0.39026638D-13
  0.41427105D+00  0.78572686D-13 -0.19320699D-13  0.67353263D-01  0.16875641D-13
 -0.45062769D-14  0.16787467D-02  0.50626865D-15 -0.11780409D-15 -0.19683966D-14
 -0.20465388D-15  0.21730504D-14 -0.28823137D-15 -0.71895026D-01 -0.33940246D-13
 -0.19762350D-14  0.16213639D-14  0.35487112D-15  0.12105870D-15 -0.19275442D-01
 -0.17223222D-13 -0.29059403D-15  0.20442114D-15  0.86172893D-16  0.80694247D-16
 -0.14289417D-02 -0.28696509D-14 -0.11677546D-01  0.89106410D-15  0.95827166D-15
  0.24464354D-01 -0.90852194D-14  0.14858807D-14  0.10568285D-01  0.64120270D-14
 -0.43606957D-14  0.37249639D-15 -0.63415344D-03 -0.82687911D-16  0.77090777D-16
  0.11162039D-02 -0.10243181D-14  0.27804981D-15  0.78625641D-03  0.12723818D-14
 -0.50932214D-15  0.14678563D-16  0.85683680D-14  0.15453405D-13  0.22786036D-13
 -0.40587756D-14 -0.63570385D-14 -0.33974739D-15  0.23706573D-01  0.83138936D-15
  0.21113420D-14  0.13416769D-01  0.68646229D-14 -0.50964294D-14  0.19273268D-02
  0.13256475D-14 -0.81911766D-15  0.24351553D-14 -0.28046082D-14  0.36945287D-15
 -0.11179742D-01  0.84422673D-02  0.74088997D-14  0.50218836D-16 -0.12960754D-15
  0.79388705D-16 -0.14084956D-02  0.90667394D-03  0.54418117D-15 -0.63969083D-14
 -0.11537088D-13 -0.17011429D-13 -0.27699600D-14  0.36057685D-14  0.26147028D-15
  0.23706573D-01  0.84319208D-15 -0.43678349D-14  0.13416769D-01  0.21222256D-14
  0.50422888D-15  0.19273268D-02  0.90338846D-15  0.38649165D-15 -0.56412037D-15
  0.20141315D-14 -0.14500112D-14  0.11179742D-01  0.84422673D-02  0.90919868D-15
  0.80885808D-16  0.98943209D-16 -0.17982902D-15  0.14084956D-02  0.90667394D-03
  0.10881688D-15
MO    4     MO 0.0        OCC NO =    1.9613681  ORB. ENERGY =    0.000000
 -0.87150553D-02 -0.16243430D-01 -0.27543018D-01 -0.41683430D-01 -0.51996793D-01
 -0.44620984D-01 -0.17087466D-01 -0.23183771D-03 -0.24874665D-02 -0.91692699D-02
 -0.26810407D-01 -0.32307844D-01  0.38918222D-01  0.24256696D-01  0.60147854D-01
  0.79444031D-02  0.70509873D-13  0.68370859D-13  0.46122578D-13  0.75713311D-12
  0.73416443D-12  0.49526299D-12  0.15642932D+01  0.15168382D+01  0.10232501D+01
  0.16596603D-13  0.16813029D-12  0.36038405D+00  0.26051981D-14  0.12768807D-13
  0.44282808D-01  0.65567460D-16 -0.34246363D-15  0.65972248D-03  0.45097549D-01
 -0.24237542D-02 -0.42673795D-01  0.30617905D-14 -0.32027563D-14 -0.79282630D-13
  0.79468731D-02  0.47005758D-02 -0.12647449D-01 -0.22668489D-14 -0.62585863D-15
 -0.15550761D-13 -0.55203850D-03  0.12426316D-02 -0.69059311D-03 -0.42406425D-15
 -0.18067628D-16  0.11387260D-15 -0.34025592D-15  0.46799827D-14  0.10491265D-02
  0.94583571D-15 -0.11986443D-13 -0.22451488D-01  0.74932051D-16 -0.20535048D-14
  0.19304108D-01  0.21806997D-14  0.12555798D-16 -0.51950801D-15  0.47177785D-03
 -0.92426214D-17 -0.79974002D-15 -0.90633494D-03 -0.28424774D-16  0.23582640D-14
 -0.50899862D-03  0.18580619D-14 -0.26228637D-01 -0.47304428D-01 -0.69750351D-01
 -0.56481758D-01 -0.80804825D-02 -0.79993717D-04  0.12145108D-14  0.24287478D-01
  0.10743430D-02  0.19202634D-14  0.13114470D-01  0.41919047D-03  0.19248282D-15
  0.26943370D-03  0.98437755D-03  0.33332591D-02 -0.67249690D-02  0.33917098D-02
 -0.25897991D-14  0.18505200D-14  0.65408280D-02  0.14251239D-03 -0.35280565D-03
  0.21029327D-03 -0.33965553D-15  0.22281542D-15 -0.56204401D-03 -0.26228637D-01
 -0.47304428D-01 -0.69750351D-01 -0.56481758D-01 -0.80804825D-02 -0.79993717D-04
  0.69849002D-15 -0.24287478D-01  0.10743430D-02 -0.58808595D-15 -0.13114470D-01
  0.41919047D-03 -0.11798625D-16 -0.26943370D-03  0.98437755D-03  0.33332591D-02
 -0.67249690D-02  0.33917098D-02 -0.13258996D-14 -0.87512275D-15 -0.65408280D-02
  0.14251239D-03 -0.35280565D-03  0.21029327D-03 -0.17683902D-15 -0.11469425D-15
  0.56204401D-03
MO    5     MO 0.0        OCC NO =    1.9611840  ORB. ENERGY =    0.000000
  0.50727083D-14  0.94546942D-14  0.16031763D-13  0.24262368D-13  0.30265392D-13
  0.25972209D-13  0.99459762D-14  0.12754917D-15  0.13685189D-14  0.50446184D-14
  0.14750168D-13  0.17774670D-13 -0.21411474D-13 -0.13386350D-13 -0.37786733D-13
 -0.49448081D-14 -0.35829757D-12 -0.34742812D-12 -0.23437295D-12  0.14276413D+01
  0.13843318D+01  0.93386208D+00 -0.83123749D-12 -0.80602075D-12 -0.54373684D-12
 -0.83676668D-13  0.31857412D+00 -0.18831534D-12 -0.12494001D-13  0.31465226D-01
 -0.20748185D-13 -0.30110563D-15  0.33571734D-03 -0.26260430D-15 -0.24424281D-13
  0.17174840D-14  0.22706797D-13 -0.70159334D-15  0.16699329D-13 -0.15062612D+00
 -0.31530366D-14 -0.32130066D-14  0.63660432D-14  0.59154007D-15  0.22730576D-14
 -0.29096140D-01  0.64733463D-15 -0.70623440D-15  0.58899776D-16  0.11065322D-15
 -0.11202059D-15  0.11336620D-03  0.20912749D-14  0.75887437D-02 -0.10997576D-14
 -0.38932128D-14 -0.21673393D-01  0.11654541D-13 -0.23806119D-14 -0.10928379D-02
 -0.83552683D-14 -0.90647098D-15 -0.25704195D-15  0.91210426D-04 -0.20321621D-15
  0.60385546D-15 -0.18312020D-02 -0.41825088D-16  0.16727039D-15  0.15575708D-02
  0.65147372D-15 -0.44084562D-15  0.36027364D-01  0.64976835D-01  0.95808305D-01
  0.67798598D-01  0.49844308D-02 -0.20544454D-03 -0.48575036D-14 -0.19183543D-01
  0.26391550D-01 -0.44157992D-14 -0.71563571D-02  0.11121726D-01 -0.54673694D-15
  0.68253818D-03 -0.41315152D-05 -0.64253916D-02  0.28696265D-02  0.35557651D-02
  0.46398003D-14 -0.35295548D-14 -0.18355648D-01  0.10764182D-04 -0.30774691D-03
  0.29698273D-03  0.60345816D-15 -0.43949523D-15 -0.52292629D-03 -0.36027364D-01
 -0.64976835D-01 -0.95808305D-01 -0.67798598D-01 -0.49844308D-02  0.20544454D-03
 -0.46848987D-14 -0.19183543D-01 -0.26391550D-01 -0.38044592D-14 -0.71563571D-02
 -0.11121726D-01 -0.50294584D-15  0.68253818D-03  0.41315152D-05  0.64253916D-02
 -0.28696265D-02 -0.35557651D-02 -0.36774713D-14 -0.26210561D-14 -0.18355648D-01
 -0.10764182D-04  0.30774691D-03 -0.29698273D-03 -0.51129405D-15 -0.33757656D-15
 -0.52292629D-03
MO    6     MO 0.0        OCC NO =    0.0266139  ORB. ENERGY =    0.000000
  0.26524813D-15  0.49437890D-15  0.83828889D-15  0.12686611D-14  0.15825547D-14
  0.13580674D-14  0.52006767D-15  0.19947268D-16  0.21402110D-15  0.78892206D-15
  0.23067618D-14  0.27797602D-14 -0.33485157D-14 -0.62038372D-15 -0.13663195D-13
 -0.31371276D-14  0.15266899D-14  0.14803757D-14  0.99865270D-15  0.24007391D+01
  0.23279094D+01  0.15703939D+01  0.18958377D-13  0.18383248D-13  0.12401231D-13
 -0.23762699D-15  0.57087239D+00  0.97678857D-14 -0.63155755D-15  0.48298342D-01
  0.39887804D-14 -0.23309668D-16  0.17655542D-02  0.13052449D-15 -0.21060934D-14
  0.34578928D-15  0.17603041D-14  0.35589438D-15 -0.70167914D-15  0.38215250D+00
  0.15779059D-14 -0.70556715D-15 -0.87233880D-15 -0.28093894D-15  0.66364441D-15
  0.34124807D-01  0.33529343D-15 -0.47539167D-16 -0.28775427D-15 -0.70321562D-16
  0.19738518D-15 -0.87805867D-02 -0.42601645D-15  0.33828466D-02 -0.17178346D-14
  0.13830051D-14 -0.52071129D-01 -0.12002175D-14 -0.10495572D-15  0.41922590D-01
  0.63537214D-14 -0.53157468D-15  0.17704046D-15  0.36267477D-02  0.22980294D-15
 -0.35566878D-15 -0.26812601D-02 -0.49727756D-15 -0.17545259D-15 -0.81989829D-02
 -0.19213125D-15  0.25286593D-15 -0.56303019D-01 -0.10154481D+00 -0.14972777D+00
 -0.22202709D+00 -0.46537163D-01 -0.11835636D-02 -0.17984128D-15  0.31109179D-01
 -0.10517915D-01  0.74803574D-15  0.61289713D-01 -0.52205166D-01  0.76593844D-16
  0.58965701D-02 -0.50324960D-02  0.13178928D-01 -0.12083521D-01 -0.10954065D-02
 -0.85433466D-15  0.42462448D-15  0.36299258D-01  0.21307377D-02 -0.16013227D-02
 -0.52941501D-03 -0.15483968D-15  0.12312099D-15  0.89373487D-02  0.56303019D-01
  0.10154481D+00  0.14972777D+00  0.22202709D+00  0.46537163D-01  0.11835636D-02
 -0.16870083D-15  0.31109179D-01  0.10517915D-01  0.38835889D-15  0.61289713D-01
  0.52205166D-01  0.46320686D-16  0.58965701D-02  0.50324960D-02 -0.13178928D-01
  0.12083521D-01  0.10954065D-02  0.48676302D-15 -0.59234905D-17  0.36299258D-01
 -0.21307377D-02  0.16013227D-02  0.52941501D-03  0.96555409D-16  0.52993817D-16
  0.89373487D-02
MO    7     MO 0.0        OCC NO =    0.0249148  ORB. ENERGY =    0.000000
  0.41445854D-01  0.77248257D-01  0.13098527D+00  0.19823228D+00  0.24727915D+00
  0.21220230D+00  0.81262207D-01  0.10433720D-02  0.11194697D-01  0.41265762D-01
  0.12065867D+00  0.14539956D+00 -0.17514918D+00 -0.13375508D+00 -0.21766601D+00
 -0.35797707D-01 -0.47619650D-14 -0.46175042D-14 -0.31149411D-14 -0.30172105D-13
 -0.29256793D-13 -0.19736460D-13  0.24124551D+01  0.23392700D+01  0.15780577D+01
 -0.39332014D-15  0.66534064D-14  0.46822806D+00  0.33582079D-15  0.12764720D-13
  0.79968875D-02  0.12112055D-16  0.11433657D-14 -0.12827415D-03 -0.20610739D+00
  0.10437634D+00  0.10173105D+00 -0.22363708D-14  0.54432122D-16 -0.17390041D-13
 -0.25784554D-01  0.16341538D-01  0.94430154D-02  0.10312116D-14 -0.21673270D-15
 -0.18862280D-13  0.34471649D-02 -0.26193235D-02 -0.82784136D-03  0.29833650D-15
 -0.48244730D-16 -0.37338950D-14  0.10034586D-15  0.10520033D-13 -0.13924471D-01
  0.31911228D-15 -0.24135134D-13 -0.16394010D-01 -0.62014987D-15 -0.74249634D-14
  0.58167423D-01  0.22447903D-14 -0.42583800D-16 -0.10141521D-14  0.67704554D-03
  0.67333587D-16  0.16456732D-14 -0.41867940D-02  0.60417813D-16  0.13967832D-14
  0.21556573D-02 -0.11336538D-14  0.50551607D-01  0.91171906D-01  0.13443292D+00
  0.20466660D+00  0.35644209D-01  0.65456366D-03  0.21111274D-15 -0.13597691D-01
 -0.91978520D-02 -0.80700875D-15 -0.70630459D-01  0.19816752D-01 -0.90771912D-16
 -0.45162282D-02  0.56659653D-03 -0.66877747D-02  0.15746123D-01 -0.90583484D-02
  0.65563007D-15 -0.43923187D-15  0.39667921D-02 -0.22412613D-02  0.29223765D-02
 -0.68111526D-03  0.20182408D-15 -0.12992148D-15 -0.30361192D-02  0.50551607D-01
  0.91171906D-01  0.13443292D+00  0.20466660D+00  0.35644209D-01  0.65456366D-03
  0.45771295D-16  0.13597691D-01 -0.91978520D-02  0.71245704D-15  0.70630459D-01
  0.19816752D-01  0.74224876D-16  0.45162282D-02  0.56659653D-03 -0.66877747D-02
  0.15746123D-01 -0.90583484D-02  0.72391830D-15  0.40641432D-15 -0.39667921D-02
 -0.22412613D-02  0.29223765D-02 -0.68111526D-03  0.16738402D-15  0.11132190D-15
  0.30361192D-02
MO    8     MO 0.0        OCC NO =    0.0198937  ORB. ENERGY =    0.000000
  0.30884699D-16  0.57564000D-16  0.97607851D-16  0.14771910D-15  0.18426794D-15
  0.15812931D-15  0.60555123D-16  0.54215176D-17  0.58169326D-16  0.21442309D-15
  0.62696054D-15  0.75551793D-15 -0.91010141D-15 -0.23740067D-16 -0.69375665D-14
 -0.16741004D-14  0.29574852D+01  0.28677658D+01  0.19345779D+01  0.76563861D-14
  0.74241190D-14  0.50082668D-14  0.11286052D-14  0.10943674D-14  0.73825381D-15
  0.31080904D+00 -0.19576595D-13  0.37989251D-14 -0.11254290D+00 -0.79002925D-14
  0.20271706D-14 -0.38141506D-02 -0.52090418D-16  0.80426018D-16  0.10210317D-14
 -0.18662569D-14  0.84522516D-15 -0.86150258D-16  0.25962443D+00  0.25660254D-13
  0.12349858D-14 -0.12809448D-14  0.45959020D-16 -0.39631938D-15  0.41458831D-01
  0.11162867D-13  0.22669847D-15 -0.16236066D-15 -0.64337810D-16  0.34980967D-16
  0.30213292D-02  0.10658895D-14 -0.40756938D-02  0.45687654D-14 -0.40473906D-15
  0.14880255D-01  0.22625413D-13 -0.15110635D-14 -0.26531737D-02 -0.36331709D-13
  0.27252807D-14  0.15031406D-14 -0.47427099D-02 -0.47469347D-16 -0.56746208D-16
  0.13391637D-01 -0.29108506D-14 -0.14734723D-15  0.83649240D-03  0.30532587D-14
  0.31758585D-15 -0.21786633D-15 -0.63372810D-15 -0.11429547D-14 -0.16852861D-14
  0.16928251D-13  0.49322580D-14  0.53492809D-16 -0.52163798D-01 -0.11033693D-13
  0.42968109D-14 -0.57228791D-01 -0.67974554D-14  0.85796250D-14 -0.62496116D-02
 -0.97103028D-15  0.52990373D-15 -0.51659008D-14  0.62200249D-14 -0.10541241D-14
  0.56644270D-01 -0.37517858D-01 -0.16328480D-13  0.19358032D-15 -0.29845066D-15
  0.10487034D-15  0.84961474D-02 -0.54365027D-02 -0.68141125D-15  0.74097739D-15
  0.13363832D-14  0.19704963D-14 -0.86653889D-14 -0.20347228D-14  0.27747534D-16
 -0.52163798D-01 -0.99891276D-14 -0.33886969D-14 -0.57228791D-01 -0.26353928D-14
 -0.55411978D-14 -0.62496116D-02 -0.58401319D-15 -0.23944596D-15  0.39856969D-14
 -0.53704690D-14  0.13847721D-14 -0.56644270D-01 -0.37517858D-01 -0.12464331D-13
 -0.29697617D-15  0.36125839D-15 -0.64282222D-16 -0.84961474D-02 -0.54365027D-02
 -0.37477139D-15
MO    9     MO 0.0        OCC NO =    0.0129676  ORB. ENERGY =    0.000000
  0.11562164D+00  0.21549972D+00  0.36541006D+00  0.55300927D+00  0.68983548D+00
  0.59198147D+00  0.22669745D+00  0.24951678D-02  0.26771513D-01  0.98684838D-01
  0.28854868D+00  0.34771519D+00 -0.41885979D+00 -0.63681216D+00  0.32654424D+00
  0.49768943D-01 -0.63689332D-15 -0.61757228D-15 -0.41661061D-15 -0.14816503D-13
 -0.14367024D-13 -0.96919094D-14 -0.13208160D+01 -0.12807472D+01 -0.86398450D+00
  0.51521133D-16 -0.68716735D-14 -0.56473600D-01  0.33710004D-15 -0.58406735D-14
  0.27498353D-01  0.13189927D-16 -0.32928792D-15 -0.29388915D-03 -0.25486004D+00
  0.41995240D+00 -0.16509237D+00 -0.27026906D-14  0.13411120D-14  0.40345280D-13
 -0.66088893D-01  0.11080349D+00 -0.44714601D-01  0.13206824D-14 -0.26804448D-15
 -0.15913211D-14 -0.73018311D-02  0.86058602D-02 -0.13040291D-02  0.39325142D-15
 -0.12027984D-15 -0.18841499D-14  0.27019589D-15 -0.71683970D-14 -0.77248802D-02
 -0.12370041D-14 -0.24680425D-13 -0.34559895D-01  0.42641643D-15  0.46185616D-13
  0.57734536D-01 -0.15295218D-15 -0.60435042D-16 -0.61293600D-15  0.74085060D-02
  0.13528589D-15  0.11017619D-14  0.19223034D-01  0.46019235D-16  0.73704608D-15
 -0.41448552D-01 -0.89791058D-15  0.31181812D-01  0.56237682D-01  0.82922429D-01
 -0.52711140D-01 -0.38817213D-01 -0.76366667D-03  0.18233516D-15 -0.14706491D-01
  0.66609627D-01 -0.10750855D-14  0.27531705D-01  0.16745472D-01 -0.12558894D-15
  0.28556414D-02  0.10191916D-02 -0.93345381D-02 -0.88139053D-02  0.18148443D-01
  0.10776538D-14 -0.89633951D-15 -0.43386484D-01 -0.57193862D-03 -0.54063784D-03
  0.11125765D-02  0.23199340D-15 -0.24917208D-15 -0.52118696D-02  0.31181812D-01
  0.56237682D-01  0.82922429D-01 -0.52711140D-01 -0.38817213D-01 -0.76366667D-03
 -0.12688330D-15  0.14706491D-01  0.66609627D-01  0.59278678D-15 -0.27531705D-01
  0.16745472D-01  0.62590713D-16 -0.28556414D-02  0.10191916D-02 -0.93345381D-02
 -0.88139053D-02  0.18148443D-01  0.51355461D-15  0.91634574D-16  0.43386484D-01
 -0.57193862D-03 -0.54063784D-03  0.11125765D-02  0.86860353D-16  0.13332652D-15
  0.52118696D-02
MO   10     MO 0.0        OCC NO =    0.0071301  ORB. ENERGY =    0.000000
  0.58131813D-01  0.10834814D+00  0.18371950D+00  0.27803992D+00  0.34683289D+00
  0.29763422D+00  0.11397809D+00  0.10017461D-02  0.10748078D-01  0.39619441D-01
  0.11584492D+00  0.13959876D+00 -0.16816150D+00 -0.35412292D+00  0.10082515D+00
 -0.36034530D-02 -0.51572751D-14 -0.50008221D-14 -0.33735250D-14 -0.94337064D-14
 -0.91475219D-14 -0.61708642D-14 -0.34557642D-01 -0.33509288D-01 -0.22605168D-01
  0.28442057D-15  0.30669777D-13  0.39997330D-01  0.73170130D-15  0.21822797D-13
 -0.20326670D-01  0.56309119D-17 -0.80476124D-16 -0.37522439D-03  0.94166402D+00
 -0.16236579D+01  0.68199393D+00 -0.78735602D-14  0.11169067D-13 -0.73043324D-13
  0.24163374D+00 -0.43534927D+00  0.19371553D+00  0.34397515D-15  0.19503338D-14
 -0.39928173D-13  0.45848706D-02 -0.13225056D-01  0.86401854D-02  0.42856127D-15
 -0.65274140D-16 -0.27857217D-14  0.64643388D-17  0.21394462D-13 -0.56998747D-01
  0.17103730D-14 -0.60631131D-13 -0.61261744D-01 -0.17297660D-14 -0.35522537D-14
  0.23225798D+00  0.17157677D-14 -0.62872140D-16 -0.24329089D-14 -0.13001580D-01
  0.24546253D-15  0.14293850D-13 -0.29978089D-02 -0.56846107D-16 -0.69951235D-14
  0.42002548D-01 -0.12714448D-14 -0.26839388D-01 -0.48405942D-01 -0.71374534D-01
  0.71768289D-02  0.11702085D-01  0.15265101D-03 -0.11344708D-15  0.47205039D-02
 -0.12786657D+00 -0.16237155D-14 -0.27653070D-01  0.11802119D-01 -0.19397109D-15
 -0.24649891D-02  0.29804749D-02  0.21747010D-01  0.44032913D-02 -0.26150301D-01
  0.13310522D-14 -0.62181452D-15  0.49373414D-01 -0.20044070D-02 -0.29146537D-03
  0.22958724D-02  0.39856674D-15 -0.23931025D-15 -0.78898655D-02 -0.26839388D-01
 -0.48405942D-01 -0.71374534D-01  0.71768289D-02  0.11702085D-01  0.15265101D-03
 -0.18678759D-15 -0.47205039D-02 -0.12786657D+00  0.71102481D-15  0.27653070D-01
  0.11802119D-01  0.66807896D-16  0.24649891D-02  0.29804749D-02  0.21747010D-01
  0.44032913D-02 -0.26150301D-01  0.56804767D-15  0.80070272D-15 -0.49373414D-01
 -0.20044070D-02 -0.29146537D-03  0.22958724D-02  0.15474019D-15  0.17736958D-15
  0.78898655D-02
MO   11     MO 0.0        OCC NO =    0.0068367  ORB. ENERGY =    0.000000
  0.34856715D-15  0.64967186D-15  0.11016099D-14  0.16671695D-14  0.20796625D-14
  0.17846599D-14  0.68342992D-15 -0.52076249D-17 -0.55874397D-16 -0.20596355D-15
 -0.60222534D-15 -0.72571081D-15  0.87419558D-15 -0.12353818D-14  0.35018841D-14
  0.60769419D-15  0.33108502D-14  0.32104110D-14  0.21657243D-14  0.64755739D-14
  0.62791284D-14  0.42358629D-14  0.36897244D-14  0.35777915D-14  0.24135570D-14
 -0.42831103D-16  0.31349420D-14 -0.17937600D-14 -0.28558352D-15  0.35978988D-14
 -0.56270558D-15 -0.13617533D-17  0.18067707D-15 -0.13389062D-16  0.77031309D-14
 -0.22624475D-14 -0.54406834D-14  0.35634183D+01 -0.46648098D-14 -0.23266785D-13
  0.11047104D-14  0.83388046D-15 -0.19385908D-14  0.84772077D+00 -0.16177758D-14
 -0.91260339D-14 -0.29142922D-16  0.17258415D-15 -0.14344123D-15  0.25980385D-01
 -0.81140486D-16 -0.12718202D-14 -0.34427224D-15  0.31974223D-15  0.56092909D-15
  0.22605232D-14 -0.16892420D-14  0.21874819D-15 -0.12277065D-14  0.73001526D-15
 -0.19015355D-14 -0.25269738D+00 -0.49394434D-16 -0.13546275D-16  0.18086500D-15
  0.88796113D-16 -0.86809596D-15 -0.28769248D-15  0.59387189D-16  0.90873479D-15
 -0.25490250D-15 -0.62429950D-01  0.79343878D-16  0.14309995D-15  0.21100080D-15
 -0.70653714D-14 -0.23735193D-14 -0.12944763D-15  0.12929251D+00  0.12638298D-14
 -0.11453339D-14  0.20952894D-01  0.18318502D-14 -0.29701875D-14 -0.15759764D-05
  0.25721350D-15 -0.36035592D-15  0.43343650D-15  0.20629126D-15 -0.63972776D-15
 -0.59794310D-01  0.52381085D-01  0.29711324D-14 -0.31250286D-16  0.14592271D-15
 -0.11467243D-15  0.45675182D-02 -0.22551943D-02  0.23794034D-15 -0.26120678D-15
 -0.47109719D-15 -0.69463253D-15  0.33305406D-14  0.12711625D-14  0.10382455D-15
 -0.12929251D+00 -0.55338015D-15 -0.15944038D-15 -0.20952894D-01  0.24615955D-15
  0.24679398D-15  0.15759764D-05  0.12324422D-15  0.12204256D-15  0.48076615D-15
 -0.22953164D-15 -0.25123450D-15 -0.59794310D-01 -0.52381085D-01 -0.14597263D-14
  0.10648489D-15 -0.73018583D-16 -0.33466308D-16  0.45675182D-02  0.22551943D-02
 -0.62164034D-16
MO   12     MO 0.0        OCC NO =    0.0067605  ORB. ENERGY =    0.000000
 -0.96640034D-15 -0.18012113D-14 -0.30542069D-14 -0.46222174D-14 -0.57658519D-14
 -0.49479587D-14 -0.18948053D-14 -0.15704267D-17 -0.16849648D-16 -0.62110976D-16
 -0.18160885D-15 -0.21884750D-15  0.26362500D-15  0.56210825D-14 -0.22724816D-13
 -0.45170885D-14 -0.16999419D-14 -0.16483718D-14 -0.11119819D-14 -0.12435995D+01
 -0.12058732D+01 -0.81347491D+00 -0.14882950D-13 -0.14431455D-13 -0.97353745D-14
  0.60448308D-16  0.10252209D-03  0.10390124D-13  0.39657504D-15  0.47995694D-01
  0.74567620D-14  0.15629578D-16 -0.93190179D-03  0.24818399D-15 -0.22309720D-13
  0.21187786D-13  0.11219333D-14  0.26187989D-13  0.10138727D-13  0.30031035D+01
 -0.17676736D-14  0.22325730D-14 -0.46489938D-15  0.65787263D-14  0.21771929D-14
  0.72421281D+00  0.76583782D-15 -0.51246414D-15 -0.25337367D-15  0.27344062D-15
 -0.29913905D-16  0.18214666D-01  0.42427579D-15  0.30956179D-01  0.37270908D-15
 -0.81897904D-15  0.44645576D-01  0.21138709D-14 -0.45384832D-15 -0.13751411D+00
 -0.32319982D-14 -0.16122808D-14 -0.43000604D-16  0.65730964D-02 -0.29866246D-15
  0.27697268D-15  0.26828663D-01 -0.50475041D-15 -0.14797087D-15 -0.46547953D-01
  0.14007378D-14 -0.75141268D-15 -0.31329429D-01 -0.56503915D-01 -0.83314990D-01
  0.56421350D-01  0.35348979D-01  0.69256560D-03  0.10107293D-14  0.17812766D+00
 -0.57683193D-01 -0.33012235D-15  0.89570205D-03  0.24230097D-01 -0.63790182D-16
 -0.33187197D-02  0.33524116D-02  0.45279898D-01 -0.60122358D-01  0.14842460D-01
 -0.45884489D-15  0.24519829D-15  0.11686225D+00 -0.12645359D-02  0.83665075D-03
  0.42788515D-03  0.13504552D-15 -0.11808292D-15 -0.52436413D-02  0.31329429D-01
  0.56503915D-01  0.83314990D-01 -0.56421350D-01 -0.35348979D-01 -0.69256560D-03
 -0.92595821D-15  0.17812766D+00  0.57683193D-01 -0.26732036D-15  0.89570205D-03
 -0.24230097D-01 -0.31344885D-16 -0.33187197D-02 -0.33524116D-02 -0.45279898D-01
  0.60122358D-01 -0.14842460D-01 -0.44761760D-16 -0.34320311D-15  0.11686225D+00
  0.12645359D-02 -0.83665075D-03 -0.42788515D-03 -0.97700924D-17 -0.43270815D-17
 -0.52436413D-02
MO   13     MO 0.0        OCC NO =    0.0061573  ORB. ENERGY =    0.000000
 -0.41430837D-15 -0.77220268D-15 -0.13093782D-14 -0.19816046D-14 -0.24718955D-14
 -0.21212541D-14 -0.81232764D-15 -0.34858847D-17 -0.37401255D-16 -0.13786807D-15
 -0.40311814D-15 -0.48577696D-15  0.58516983D-15  0.21428918D-14  0.14789149D-15
  0.26095047D-15 -0.53572819D+00 -0.51947613D+00 -0.35043553D+00 -0.26039928D-13
 -0.25249970D-13 -0.17033481D-13 -0.11884772D-13 -0.11524231D-13 -0.77741781D-14
  0.12178735D-01  0.78040828D-13  0.35651148D-15  0.23933890D-01 -0.24230835D-14
  0.80058350D-15  0.11099471D-02 -0.23477638D-14  0.24336974D-16 -0.45240075D-13
  0.16780759D-14  0.43561999D-13  0.90780350D-14  0.39312299D+01 -0.25128789D-12