 MP2/6-311++G** opted
GAUSSIAN             69 MOL ORBITALS     99 PRIMITIVES        2 NUCLEI
  F    1    (CENTRE  1)   0.00000000  0.00000000  0.17605628  CHARGE =  9.0
  H    2    (CENTRE  2)   0.00000000  0.00000000 -1.58450648  CHARGE =  1.0
CENTRE ASSIGNMENTS    1  1  1  1  1  1  1  1  1  1  1  1  1  1  1  1  1  1  1  1
CENTRE ASSIGNMENTS    1  1  1  1  1  1  1  1  1  1  1  1  1  1  1  1  1  1  1  1
CENTRE ASSIGNMENTS    1  1  1  1  1  1  1  1  1  1  1  1  1  1  1  1  1  1  1  1
CENTRE ASSIGNMENTS    1  1  1  1  1  1  1  1  1  1  1  1  2  2  2  2  2  2  2  2
CENTRE ASSIGNMENTS    2  2  2  2  2  2  2  2  2  2  2  2  2  2  2  2  2  2  2
TYPE ASSIGNMENTS      1  1  1  1  1  1  1  1  1  1  1  1  1  1  1  1  2  2  2  3
TYPE ASSIGNMENTS      3  3  4  4  4  2  3  4  2  3  4  2  3  4  5  6  7  8  9 10
TYPE ASSIGNMENTS      5  6  7  8  9 10  5  6  7  8  9 10 11 12 13 17 14 15 18 19
TYPE ASSIGNMENTS     16 20 11 12 13 17 14 15 18 19 16 20  1  1  1  1  1  1  2  3
TYPE ASSIGNMENTS      4  2  3  4  2  3  4  5  6  7  8  9 10  5  6  7  8  9 10
EXPONENTS  0.1950000D+05 0.2923000D+04 0.6645000D+03 0.1875000D+03 0.6062000D+02
EXPONENTS  0.2142000D+02 0.7950000D+01 0.6645000D+03 0.1875000D+03 0.6062000D+02
EXPONENTS  0.2142000D+02 0.7950000D+01 0.8815000D+00 0.2257000D+01 0.3041000D+00
EXPONENTS  0.9158000D-01 0.4388000D+02 0.9926000D+01 0.2930000D+01 0.4388000D+02
EXPONENTS  0.9926000D+01 0.2930000D+01 0.4388000D+02 0.9926000D+01 0.2930000D+01
EXPONENTS  0.9132000D+00 0.9132000D+00 0.9132000D+00 0.2672000D+00 0.2672000D+00
EXPONENTS  0.2672000D+00 0.7361000D-01 0.7361000D-01 0.7361000D-01 0.3107000D+01
EXPONENTS  0.3107000D+01 0.3107000D+01 0.3107000D+01 0.3107000D+01 0.3107000D+01
EXPONENTS  0.8550000D+00 0.8550000D+00 0.8550000D+00 0.8550000D+00 0.8550000D+00
EXPONENTS  0.8550000D+00 0.2920000D+00 0.2920000D+00 0.2920000D+00 0.2920000D+00
EXPONENTS  0.2920000D+00 0.2920000D+00 0.1917000D+01 0.1917000D+01 0.1917000D+01
EXPONENTS  0.1917000D+01 0.1917000D+01 0.1917000D+01 0.1917000D+01 0.1917000D+01
EXPONENTS  0.1917000D+01 0.1917000D+01 0.7240000D+00 0.7240000D+00 0.7240000D+00
EXPONENTS  0.7240000D+00 0.7240000D+00 0.7240000D+00 0.7240000D+00 0.7240000D+00
EXPONENTS  0.7240000D+00 0.7240000D+00 0.3387000D+02 0.5095000D+01 0.1159000D+01
EXPONENTS  0.3258000D+00 0.1027000D+00 0.2526000D-01 0.1407000D+01 0.1407000D+01
EXPONENTS  0.1407000D+01 0.3880000D+00 0.3880000D+00 0.3880000D+00 0.1020000D+00
EXPONENTS  0.1020000D+00 0.1020000D+00 0.1057000D+01 0.1057000D+01 0.1057000D+01
EXPONENTS  0.1057000D+01 0.1057000D+01 0.1057000D+01 0.2470000D+00 0.2470000D+00
EXPONENTS  0.2470000D+00 0.2470000D+00 0.2470000D+00 0.2470000D+00
MO    1     MO 0.0        OCC NO =    2.0000018  ORB. ENERGY =    0.000000
  0.59731829D+00  0.11134023D+01  0.18874650D+01  0.28578772D+01  0.35729760D+01
  0.30734001D+01  0.11787151D+01  0.51375212D-04  0.68011161D-03  0.24702891D-02
  0.73280661D-02  0.84441161D-02 -0.10256637D-01  0.55559442D-01  0.18135109D-03
 -0.25841659D-04  0.49060491D-16  0.47980089D-16  0.31702473D-16 -0.62719056D-15
 -0.61337867D-15 -0.40528522D-15 -0.15910418D-01 -0.15560041D-01 -0.10281177D-01
  0.11847205D-16  0.24814294D-15 -0.10067456D-03  0.87167274D-17  0.72222623D-19
 -0.82240319D-03  0.25947914D-18  0.17160581D-17 -0.11540390D-04 -0.16937371D-03
 -0.16937371D-03  0.33874742D-03 -0.11014483D-20  0.27552014D-16  0.14820329D-14
  0.32691818D-03  0.32691818D-03 -0.65383637D-03  0.35509020D-20 -0.53663465D-17
 -0.11365122D-15 -0.97011833D-04 -0.97011833D-04  0.19402367D-03 -0.93077268D-21
 -0.49105365D-17 -0.20950432D-16  0.79113707D-17  0.19453260D-15  0.73341531D-03
  0.79113707D-17 -0.46252232D-15 -0.11001230D-02 -0.31645483D-16 -0.12107548D-15
 -0.11001230D-02 -0.11255931D-19 -0.26369948D-17 -0.13820911D-15 -0.50137939D-04
 -0.26369948D-17  0.26681186D-15  0.75206909D-04  0.10547979D-16  0.14781546D-15
  0.75206909D-04  0.59674146D-21  0.11315016D-03  0.20407097D-03  0.30090253D-03
 -0.54063250D-03 -0.56203888D-05  0.40952925D-05  0.96867895D-19  0.33940745D-15
  0.10318188D-02 -0.10647827D-16 -0.12014398D-15 -0.20339401D-04 -0.91197560D-18
  0.79324396D-18  0.68815983D-05 -0.15021476D-03 -0.15021476D-03  0.30042951D-03
 -0.16795080D-20 -0.16139564D-16 -0.21845199D-15 -0.37222029D-04 -0.37222029D-04
  0.74444058D-04 -0.39242165D-21 -0.32214387D-17  0.41511745D-19
MO    2     MO 0.0        OCC NO =    1.9854338  ORB. ENERGY =    0.000000
 -0.13045997D+00 -0.24317761D+00 -0.41224023D+00 -0.62418746D+00 -0.78037180D+00
 -0.67125968D+00 -0.25744254D+00 -0.18873962D-02 -0.24985592D-01 -0.90752217D-01
 -0.26921474D+00 -0.31021562D+00  0.37680307D+00  0.21881153D+00  0.10983879D+00
  0.55161406D-02  0.97199130D-16  0.95058626D-16  0.62809253D-16 -0.49685584D-15
 -0.48591416D-15 -0.32106403D-15  0.21587053D+00  0.21111667D+00  0.13949371D+00
  0.22252930D-16  0.27505464D-15  0.39986956D-01  0.34996516D-16 -0.10569351D-15
  0.59198405D-02  0.13450302D-17  0.20006869D-17 -0.79234301D-04 -0.74152655D-02
 -0.74152655D-02  0.14830531D-01 -0.56974515D-19  0.86123535D-16 -0.13250669D-14
 -0.28710438D-02 -0.28710438D-02  0.57420876D-02 -0.28188574D-19 -0.20009676D-16
 -0.19964010D-17 -0.14036441D-03 -0.14036441D-03  0.28072882D-03 -0.46102259D-20
 -0.21476804D-16  0.80636159D-17  0.33418334D-16 -0.88271432D-15 -0.52928069D-02
  0.33418334D-16  0.11281845D-14  0.79392103D-02 -0.13367334D-15  0.15199584D-14
  0.79392103D-02  0.76961765D-19 -0.11520327D-16 -0.16775011D-15  0.11578173D-03
 -0.11520327D-16  0.17151022D-15 -0.17367260D-03  0.46081309D-16  0.33174011D-15
 -0.17367260D-03  0.49765948D-20  0.12493458D-01  0.22532466D-01  0.33224107D-01
 -0.19272736D-02 -0.47409395D-02 -0.43681033D-04 -0.18864878D-17  0.12548027D-15
  0.24245719D-01 -0.46563774D-16 -0.35976074D-16 -0.10069036D-02 -0.43674919D-17
  0.11811600D-16 -0.61016660D-03 -0.10967164D-02 -0.10967164D-02  0.21934328D-02
 -0.13758367D-19 -0.58111511D-16 -0.35598036D-15  0.87082646D-04  0.87082646D-04
 -0.17416529D-03  0.38106458D-21 -0.14563159D-16  0.66396058D-16
MO    3     MO 0.0        OCC NO =    1.9718353  ORB. ENERGY =    0.000000
  0.82634446D-17  0.15403075D-16  0.26111644D-16  0.39536560D-16  0.49429407D-16
  0.42518154D-16  0.16306627D-16  0.42873555D-19  0.56756559D-18  0.20615015D-17
  0.61154053D-17  0.70467694D-17 -0.85593511D-17 -0.36277862D-16 -0.66665384D-15
 -0.17856616D-15  0.25870231D+01  0.25300521D+01  0.16717124D+01 -0.46173289D-15
 -0.45156469D-15 -0.29836788D-15 -0.64450317D-14 -0.63031002D-14 -0.41647248D-14
  0.58857066D+00  0.55369437D-16 -0.10652533D-14  0.92449190D-01 -0.48229966D-17
  0.14623978D-15  0.20102190D-02  0.75776890D-18  0.10447375D-16 -0.14384444D-15
 -0.14676590D-15  0.29061034D-15 -0.20189950D-20 -0.77041313D-01 -0.98726353D-15
  0.40023781D-16  0.40951986D-16 -0.80975767D-16 -0.65267183D-21 -0.24547166D-01
  0.22928747D-15  0.26515909D-16  0.25757770D-16 -0.52273679D-16 -0.86686991D-22
 -0.35845853D-02 -0.29545484D-16 -0.87347227D-02 -0.35540164D-15  0.17589206D-16
 -0.87347227D-02 -0.75020051D-15 -0.20053147D-16  0.34938891D-01  0.18164054D-14
 -0.32714471D-16  0.28061957D-20 -0.11545707D-02  0.27506068D-16  0.13913749D-16
 -0.11545707D-02  0.72468504D-16 -0.22781964D-16  0.46182827D-02 -0.15498671D-15
 -0.18959284D-16  0.34226697D-21  0.12068232D-15  0.21765554D-15  0.32093296D-15
  0.77943953D-15  0.20120205D-15  0.34117813D-17  0.25991424D-01 -0.12068504D-16
  0.20273973D-15  0.96513704D-02  0.40876347D-17  0.44324521D-15  0.10221051D-02
 -0.39801093D-17  0.37950650D-16 -0.12014156D-15 -0.11799978D-15  0.23814133D-15
  0.44180032D-21  0.15766451D-01 -0.19914853D-15 -0.12185225D-16 -0.11526329D-16
  0.23711554D-16  0.44724054D-23  0.20460541D-03  0.63075755D-17
MO    4     MO 0.0        OCC NO =    1.9718353  ORB. ENERGY =    0.000000
  0.20019916D-20  0.37317157D-20  0.63260896D-20  0.95785551D-20  0.11975304D-19
  0.10300909D-19  0.39506201D-20  0.52366295D-22  0.69323170D-21  0.25179437D-20
  0.74694324D-20  0.86070122D-20 -0.10454498D-19 -0.73283695D-20 -0.13645560D-19
 -0.17676847D-20  0.12287475D-15  0.12016883D-15  0.79400624D-16  0.25870231D+01
  0.25300521D+01  0.16717124D+01 -0.68352629D-18 -0.66847378D-18 -0.44168889D-18
  0.28032561D-16  0.58857066D+00 -0.15393132D-18  0.43944109D-17  0.92449190D-01
 -0.18206458D-19  0.93494419D-19  0.20102190D-02 -0.22693149D-21 -0.11946661D-19
 -0.13965656D-19  0.25912317D-19  0.29214611D-17 -0.36571222D-17 -0.77041313D-01
 -0.30124145D-20 -0.36650863D-20  0.66775007D-20 -0.92820449D-18 -0.11672959D-17
 -0.24547166D-01 -0.53890041D-22 -0.14057703D-21  0.19446707D-21  0.75813961D-18
 -0.16877868D-18 -0.35845853D-02 -0.39674971D-18 -0.87347227D-02 -0.69401602D-20
 -0.48896184D-18 -0.87347227D-02  0.90071425D-20  0.16792110D-17  0.34938891D-01
  0.11813338D-19  0.12661323D-16 -0.52160518D-19 -0.11545707D-02 -0.66495063D-21
 -0.63405101D-19 -0.11545707D-02  0.82629245D-21  0.21988666D-18  0.46182827D-02
  0.11685594D-20 -0.38226791D-17  0.10504254D-19  0.18944855D-19  0.27934177D-19
  0.19858158D-19  0.24105829D-20  0.12365223D-22  0.12338970D-17  0.25991424D-01
  0.63296089D-20  0.45326160D-18  0.96513704D-02  0.47061060D-20  0.46487818D-19
  0.10221051D-02  0.11364304D-21 -0.90567448D-21 -0.46387415D-21  0.13695486D-20
 -0.21417764D-17  0.75450229D-18  0.15766451D-01 -0.18183574D-21 -0.17736334D-21
  0.35919908D-21 -0.65889535D-18  0.95410986D-20  0.20460541D-03
MO    5     MO 0.0        OCC NO =    1.9645192  ORB. ENERGY =    0.000000
 -0.17139435D-02 -0.31947937D-02 -0.54158871D-02 -0.82003855D-02 -0.10252288D-01
 -0.88188062D-02 -0.33822020D-02 -0.69376558D-04 -0.91841573D-03 -0.33358530D-02
 -0.98957452D-02 -0.11402848D-01  0.13850457D-01  0.12949330D-01  0.47968890D-01
  0.68179395D-02  0.72079023D-14  0.70491710D-14  0.46576853D-14  0.39832341D-15
  0.38955159D-15  0.25739321D-15  0.22185478D+01  0.21696913D+01  0.14336068D+01
  0.16321141D-14  0.18501188D-16  0.49666224D+00  0.23240296D-15 -0.55338497D-16
  0.53797455D-01  0.48200685D-17  0.71839357D-17  0.57722912D-03  0.47262055D-01
  0.47262055D-01 -0.94524109D-01  0.52180379D-18 -0.24288502D-15  0.21710012D-14
  0.11758293D-01  0.11758293D-01 -0.23516586D-01  0.12877279D-18 -0.31944575D-16
 -0.26722095D-15  0.96066163D-04  0.96066163D-04 -0.19213233D-03  0.62406049D-22
  0.84119440D-17  0.15723256D-17 -0.38975508D-16 -0.63453445D-15  0.22751497D-01
 -0.38975508D-16  0.13220338D-14 -0.34127246D-01  0.15590203D-15  0.58156957D-15
 -0.34127246D-01 -0.35734591D-18  0.93770989D-17  0.64988636D-16  0.19528136D-02
  0.93770989D-17 -0.63905194D-16 -0.29292204D-02 -0.37508395D-16 -0.13106072D-15
 -0.29292204D-02 -0.26928898D-19 -0.44385160D-01 -0.80050464D-01 -0.11803436D+00
 -0.82151025D-01 -0.95367871D-02 -0.47022385D-04  0.74306350D-16  0.40459115D-15
 -0.34186691D-01  0.65140377D-16 -0.35489483D-16 -0.21635907D-01  0.56551185D-17
 -0.12824476D-16 -0.57080303D-03  0.45561787D-02  0.45561787D-02 -0.91123575D-02
  0.55511198D-19  0.10644844D-15 -0.54624872D-15  0.75823477D-03  0.75823477D-03
 -0.15164695D-02  0.86581304D-20  0.11393557D-16  0.69119052D-16
MO    6     MO 0.0        OCC NO =    0.0264546  ORB. ENERGY =    0.000000
 -0.36434261D-01 -0.67913526D-01 -0.11512856D+00 -0.17432020D+00 -0.21793865D+00
 -0.18746632D+00 -0.71897369D-01 -0.66242410D-03 -0.87692547D-02 -0.31851529D-01
 -0.94486960D-01 -0.10887714D+00  0.13224750D+00  0.11217939D+00  0.20037888D+00
  0.35483213D-01  0.13998091D-14  0.13689828D-14  0.90454479D-15  0.11258564D-13
  0.11010629D-13  0.72751884D-14 -0.33699116D+01 -0.32956999D+01 -0.21776083D+01
  0.52485791D-16 -0.34788560D-14 -0.60691209D+00  0.26430821D-15 -0.27429102D-16
 -0.19664211D-01  0.68660453D-17  0.16338858D-15  0.87572694D-04  0.15807140D+00
  0.15807140D+00 -0.31614279D+00  0.65249488D-18  0.91826754D-15 -0.55073206D-13
  0.17748538D-01  0.17748538D-01 -0.35497076D-01  0.11063254D-18 -0.14433198D-15
  0.38198462D-14 -0.23346267D-02 -0.23346267D-02  0.46692534D-02  0.70509909D-21
 -0.22232664D-15  0.33156562D-15  0.38442533D-15 -0.53433128D-13 -0.55411233D-01
  0.38442533D-15  0.10324816D-12  0.83116849D-01 -0.15377013D-14  0.57051227D-13
  0.83116849D-01 -0.16793940D-19 -0.10723074D-15  0.29742163D-14  0.50836952D-03
 -0.10723074D-15 -0.83319066D-14 -0.76255429D-03  0.42892298D-15 -0.59074238D-15
 -0.76255429D-03  0.60318446D-20 -0.82675009D-01 -0.14910778D+00 -0.21985934D+00
 -0.30462806D+00 -0.43087080D-01 -0.74266909D-03  0.10890873D-15  0.61730569D-14
 -0.76833476D-01 -0.45233623D-15  0.67019964D-16 -0.13269247D+00 -0.40304186D-16
 -0.32821635D-15 -0.84210597D-02  0.27292289D-01  0.27292289D-01 -0.54584578D-01
 -0.13808724D-19 -0.65585266D-15 -0.25458008D-14  0.48715359D-02  0.48715359D-02
 -0.97430718D-02 -0.67361515D-20 -0.16106301D-15  0.74697332D-15
MO    7     MO 0.0        OCC NO =    0.0167637  ORB. ENERGY =    0.000000
 -0.36732729D-17 -0.68469870D-17 -0.11607168D-16 -0.17574823D-16 -0.21972399D-16
 -0.18900204D-16 -0.72486349D-17 -0.52588646D-19 -0.69617520D-18 -0.25286350D-17
 -0.75011481D-17 -0.86435581D-17  0.10498889D-16  0.12222573D-16  0.33530680D-17
 -0.20744343D-18  0.57696140D-05  0.56425565D-05  0.37282757D-05  0.42994315D+01
  0.42047501D+01  0.27782562D+01 -0.40920769D-16 -0.40019618D-16 -0.26442654D-16
  0.38139310D-06  0.28420853D+00 -0.10856490D-16 -0.27304911D-06 -0.20347218D+00
  0.44761266D-17 -0.76684467D-08 -0.57144137D-02 -0.68999924D-18  0.80637203D-17
  0.80609379D-17 -0.16124658D-16 -0.29764450D-17  0.49538871D-06  0.36915638D+00
 -0.61081782D-17 -0.61089509D-17  0.12217129D-16  0.89994025D-18  0.11026356D-06
  0.82166785D-01  0.55042787D-18  0.55035216D-18 -0.11007800D-17 -0.65687112D-18
  0.22695898D-07  0.16912649D-01 -0.41611474D-08 -0.31008258D-02  0.22260641D-16
 -0.41611474D-08 -0.31008258D-02 -0.33392142D-16  0.16644589D-07  0.12403303D-01
 -0.33389782D-16 -0.10145988D-16 -0.31707577D-08 -0.23628020D-02 -0.34626249D-17
 -0.31707577D-08 -0.23628020D-02  0.51937935D-17  0.12683031D-07  0.94512080D-02
  0.51940813D-17  0.29222717D-17  0.51111321D-17  0.92181372D-17  0.13592138D-16
  0.72388680D-17  0.31747413D-17  0.45918465D-18 -0.12087959D-06 -0.90077696D-01
 -0.31720430D-16 -0.50251976D-07 -0.37447033D-01 -0.30106984D-17 -0.31364076D-08
 -0.23372048D-02 -0.32033146D-18  0.10587181D-16  0.10587533D-16 -0.21174714D-16
 -0.39031897D-18 -0.13610255D-06 -0.10142162D+00  0.38093210D-18  0.38093396D-18
 -0.76186606D-18  0.58204749D-18  0.50695557D-09  0.37777583D-03
MO    8     MO 0.0        OCC NO =    0.0167637  ORB. ENERGY =    0.000000
 -0.14984430D-16 -0.27931003D-16 -0.47349272D-16 -0.71693201D-16 -0.89632292D-16
 -0.77099844D-16 -0.29569450D-16  0.52522318D-18  0.69529715D-17  0.25254457D-16
  0.74916872D-16  0.86326564D-16 -0.10485647D-15  0.37772073D-16  0.36188439D-15
  0.14370638D-15  0.42994315D+01  0.42047501D+01  0.27782562D+01 -0.57696140D-05
 -0.56425565D-05 -0.37282757D-05  0.11505243D-14  0.11251876D-14  0.74345905D-15
  0.28420853D+00 -0.38139310D-06 -0.47716604D-16 -0.20347218D+00  0.27304911D-06
 -0.25018684D-15 -0.57144137D-02  0.76684468D-08 -0.10622858D-16 -0.43854583D-16
 -0.40878143D-16  0.84732725D-16 -0.16749425D-16  0.36915638D+00 -0.49538864D-06
 -0.60197827D-16 -0.61097778D-16  0.12129560D-15 -0.25501430D-17  0.82166785D-01
 -0.11026357D-06 -0.23093631D-16 -0.22436760D-16  0.45530391D-16 -0.16981421D-19
  0.16912649D-01 -0.22695897D-07 -0.31008258D-02  0.41611588D-08 -0.18776265D-16
 -0.31008258D-02  0.41612054D-08  0.23091379D-16  0.12403303D-01 -0.16644682D-07
  0.33237417D-16  0.10635379D-16 -0.23628020D-02  0.31707570D-08 -0.29048704D-17
 -0.23628020D-02  0.31707529D-08  0.58184389D-17  0.94512080D-02 -0.12683024D-07
  0.28961724D-17  0.13170572D-17  0.25229679D-16  0.45502765D-16  0.67093801D-16
 -0.35476548D-15 -0.15489139D-15 -0.19188856D-17 -0.90077696D-01  0.12087960D-06
 -0.71118945D-16 -0.37447033D-01  0.50251975D-07 -0.27435195D-15 -0.23372048D-02
  0.31364077D-08 -0.28158749D-16  0.56200376D-16  0.56590687D-16 -0.11279106D-15
 -0.72211715D-18 -0.10142162D+00  0.13610257D-06  0.75033281D-17  0.69212797D-17
 -0.14424608D-16  0.36169610D-19  0.37777583D-03 -0.50695594D-09
MO    9     MO 0.0        OCC NO =    0.0097182  ORB. ENERGY =    0.000000
 -0.17446142D+00 -0.32519639D+00 -0.55128033D+00 -0.83471297D+00 -0.10435751D+01
 -0.89766169D+00 -0.34427258D+00 -0.25117842D-02 -0.33251319D-01 -0.12077484D+00
 -0.35827629D+00 -0.41284106D+00  0.50145696D+00  0.98794639D+00 -0.51935685D+00
 -0.62901188D-01 -0.30011902D-14 -0.29350984D-14 -0.19393436D-14 -0.60210359D-14
 -0.58884416D-14 -0.38907423D-14  0.14158449D+01  0.13846654D+01  0.91490698D+00
  0.90192439D-15  0.19573189D-14  0.17874483D-01 -0.12818083D-15  0.11048532D-14
  0.49496636D-01 -0.40502915D-17 -0.68443291D-15  0.27734124D-02  0.13702009D+00
  0.13702009D+00 -0.27404019D+00 -0.54961360D-14  0.28600097D-14 -0.17741735D-12
  0.27029317D-01  0.27029317D-01 -0.54058633D-01 -0.93273248D-15 -0.87279389D-15
  0.14836547D-13  0.13904793D-01  0.13904793D-01 -0.27809586D-01 -0.21647227D-16
  0.21196602D-15  0.32195950D-15 -0.22238883D-14  0.36491545D-13 -0.55839410D-01
 -0.22319085D-14 -0.10292301D-12  0.83759115D-01  0.89035735D-14 -0.65516243D-14
  0.83759115D-01  0.23531536D-14  0.39995549D-15 -0.17259308D-13  0.26649236D-01
  0.40084758D-15  0.28079524D-13 -0.39973854D-01 -0.16007140D-14  0.23698401D-13
 -0.39973854D-01  0.15643104D-15 -0.15909571D-01 -0.28693567D-01 -0.42308647D-01
  0.21380365D+00  0.62264976D-01  0.79865855D-03  0.13899999D-14 -0.29228552D-13
 -0.59711796D-01 -0.35068282D-17 -0.27379882D-15  0.86512793D-01  0.23293485D-16
  0.16212285D-14  0.86485083D-02  0.80280673D-02  0.80280673D-02 -0.16056135D-01
 -0.15425344D-15  0.41205501D-15  0.27470313D-13 -0.24103308D-03 -0.24103308D-03
  0.48206616D-03 -0.40455093D-17 -0.10489263D-15 -0.32697512D-14
MO   10     MO 0.0        OCC NO =    0.0053172  ORB. ENERGY =    0.000000
 -0.32804981D-01 -0.61148542D-01 -0.10366040D+00 -0.15695587D+00 -0.19622940D+00
 -0.16879248D+00 -0.64735547D-01 -0.29979340D-03 -0.39687032D-02 -0.14415052D-01
 -0.42761981D-01 -0.49274546D-01  0.59851275D-01  0.18315768D+00 -0.10423143D-01
  0.31623872D-01 -0.31417642D-14 -0.30725768D-14 -0.20301814D-14  0.47277232D-14
  0.46236100D-14  0.30550146D-14 -0.12457007D+01 -0.12182681D+01 -0.80496121D+00
  0.53828489D-16 -0.33518612D-14  0.86092465D-02  0.24015366D-15  0.51052125D-15
  0.63717917D-01  0.10647255D-16 -0.87266515D-16 -0.70482991D-03 -0.17251470D+01
 -0.17251470D+01  0.34502940D+01  0.12343893D-14  0.31832353D-13  0.83641460D-14
 -0.39212570D+00 -0.39212570D+00  0.78425141D+00  0.25298395D-15  0.70632619D-14
  0.48931520D-14 -0.75579760D-02 -0.75579760D-02  0.15115952D-01  0.79426744D-17
  0.43333376D-16  0.11675961D-15 -0.39030622D-15 -0.40937221D-13 -0.11308028D+00
 -0.75480072D-15  0.13024069D-12  0.16962042D+00  0.19257194D-14 -0.74290293D-14
  0.16962042D+00 -0.45239042D-16  0.95495637D-16 -0.15573648D-15 -0.40037654D-01
  0.13586886D-15  0.68681264D-14  0.60056481D-01 -0.42235577D-15 -0.64009170D-14
  0.60056481D-01 -0.18596522D-16  0.33160857D-01  0.59806971D-01  0.88185344D-01
 -0.48003070D-01 -0.48563274D-01 -0.33051696D-03 -0.14401959D-14 -0.49531967D-15
  0.13405279D+00 -0.17177487D-16  0.23374259D-14 -0.42308744D-01 -0.19491616D-16
 -0.25205884D-15 -0.98232299D-02 -0.35705904D-01 -0.35705904D-01  0.71411809D-01
  0.16157974D-16 -0.45029610D-15  0.98457645D-14  0.37759698D-02  0.37759698D-02
 -0.75519397D-02  0.43421545D-17  0.41306442D-17 -0.47631885D-15
MO   11     MO 0.0        OCC NO =    0.0052450  ORB. ENERGY =    0.000000
  0.11347486D-15  0.21151733D-15  0.35856900D-15  0.54292196D-15  0.67877203D-15
  0.58386566D-15  0.22392505D-15  0.90650278D-18  0.12000399D-16  0.43587634D-16
  0.12930190D-15  0.14899432D-15 -0.18097579D-15 -0.62497227D-15  0.19698533D-15
 -0.11331927D-15 -0.74360121D+00 -0.72722574D+00 -0.48050880D+00  0.41521664D-14
  0.40607280D-14  0.26830947D-14  0.56566479D-14  0.55320781D-14  0.36552779D-14
  0.31803165D-01 -0.22930121D-15 -0.23260041D-15  0.49000927D-01  0.10219442D-15
 -0.42215443D-15  0.19550582D-02 -0.16044820D-16  0.61972154D-18  0.80268860D-14
  0.79552273D-14 -0.15982113D-13 -0.30866086D-13  0.66292503D+01 -0.10516834D-12
  0.17726115D-14  0.17588123D-14 -0.35314238D-14 -0.61139578D-14  0.14569520D+01
  0.14574993D-13  0.21465130D-16  0.21518810D-16 -0.42983940D-16 -0.14893081D-15
  0.31802320D-01 -0.21798787D-14  0.63680370D-01 -0.20388430D-13  0.50705261D-15
  0.63680370D-01 -0.86317109D-13 -0.76765178D-15 -0.25472148D+00  0.14748240D-12
 -0.75350607D-15  0.11056437D-14  0.21535025D-01  0.25494752D-14  0.21350561D-15
  0.21535025D-01  0.36526730D-14 -0.31832240D-15 -0.86140102D-01 -0.11301099D-13
 -0.32219443D-15  0.34674921D-15 -0.19836772D-15 -0.35776435D-15 -0.52752333D-15
 -0.37404076D-16  0.21517922D-15  0.78012304D-17 -0.10994919D+00 -0.19128471D-14
 -0.76012226D-15 -0.29407562D-01  0.14619506D-14 -0.26066751D-17 -0.22314511D-02
 -0.25783132D-15  0.38340529D-16  0.24905866D-15  0.24216226D-15 -0.49122091D-15
 -0.19797259D-16 -0.36574796D-01 -0.16396783D-13 -0.69858801D-17 -0.72707328D-17
  0.14256613D-16 -0.16022183D-16 -0.12448349D-02  0.46946098D-15
MO   12     MO 0.0        OCC NO =    0.0052450  ORB. ENERGY =    0.000000
 -0.68862812D-17 -0.12836040D-16 -0.21759948D-16 -0.32947503D-16 -0.41191636D-16
 -0.35432194D-16 -0.13589009D-16  0.28232240D-19  0.37374199D-18  0.13574989D-17
  0.40269949D-17  0.46402983D-17 -0.56363334D-17 -0.31587876D-16  0.68034324D-16
  0.10034478D-16  0.29248918D-15  0.28604803D-15  0.18900403D-15 -0.74360121D+00
 -0.72722574D+00 -0.48050880D+00 -0.70347889D-15 -0.68798699D-15 -0.45458209D-15
  0.12895537D-16  0.31803165D-01 -0.93558517D-16 -0.30168485D-16  0.49000927D-01
 -0.30151887D-17 -0.11548838D-17  0.19550582D-02  0.59771070D-18 -0.33842371D-16
 -0.33917221D-16  0.67759591D-16 -0.99247102D-14 -0.54153344D-15  0.66292503D+01
 -0.13101811D-17 -0.13253314D-17  0.26355125D-17 -0.19895028D-14 -0.78417306D-16
  0.14569520D+01  0.77081727D-18  0.77039735D-18 -0.15412146D-17 -0.50872070D-16
  0.52752678D-17  0.31802320D-01  0.50277136D-16  0.63680370D-01  0.68776610D-16
  0.50227262D-16  0.63680370D-01 -0.10316682D-15 -0.20105867D-15 -0.25472148D+00
 -0.10316301D-15  0.30096810D-15  0.43286596D-17  0.21535025D-01 -0.19526295D-17
  0.43228343D-17  0.21535025D-01  0.29284610D-17 -0.17308813D-16 -0.86140102D-01
  0.29294276D-17  0.11088632D-15 -0.10041504D-16 -0.18110265D-16 -0.26703576D-16
 -0.46384538D-16 -0.96862814D-17 -0.10234536D-17  0.30522940D-16 -0.10994919D+00
  0.19656442D-16  0.23517901D-16 -0.29407562D-01 -0.18705196D-16  0.23623084D-17
 -0.22314511D-02 -0.16668544D-17 -0.64006456D-17 -0.64006056D-17  0.12801251D-16
 -0.16607993D-16 -0.48798268D-16 -0.36574796D-01 -0.54574050D-18 -0.54579409D-18
  0.10915346D-17 -0.72425561D-17 -0.56913894D-19 -0.12448349D-02
MO   13     MO 0.0        OCC NO =    0.0049944  ORB. ENERGY =    0.000000
 -0.12808947D-16 -0.23875899D-16 -0.40474968D-16 -0.61284575D-16 -0.76619216D-16
 -0.65906266D-16 -0.25276471D-16 -0.11354404D-17 -0.15031105D-16 -0.54595708D-16
 -0.16195714D-15 -0.18662289D-15  0.22668130D-15  0.27308963D-15 -0.22595545D-15
 -0.21286027D-16 -0.18418784D-14 -0.18013169D-14 -0.11902062D-14 -0.17667542D-14
 -0.17278470D-14 -0.11416616D-14  0.68167669D-15  0.66666491D-15  0.44049369D-15
 -0.22821620D-15  0.80812201D-16 -0.58951997D-16  0.34337782D-15 -0.45615146D-16
  0.50100461D-17  0.14548133D-16 -0.17457337D-16 -0.69605936D-18 -0.14674734D-04
  0.14674734D-04 -0.73517309D-15  0.74747155D+01  0.25662737D-13  0.41057737D-14
 -0.29408614D-05  0.29408614D-05 -0.18992171D-15  0.14979558D+01  0.62446177D-14
  0.27654147D-14 -0.74601831D-07  0.74601831D-07 -0.15541668D-16  0.37999153D-01
 -0.25311991D-16  0.11504397D-15  0.11613071D-14  0.16868433D-16 -0.13596461D-15
  0.10168510D-14  0.16004142D-15  0.46257819D-06 -0.45007723D-14 -0.21064672D-15
 -0.46257819D-06 -0.23561860D+00 -0.10171339D-15  0.12027504D-15  0.18532763D-16
 -0.85731220D-16  0.11194945D-15  0.15709643D-06  0.39087139D-15 -0.47277456D-15
 -0.15709643D-06 -0.80018560D-01 -0.24579537D-16 -0.44330207D-16 -0.65364864D-16
  0.99847195D-16  0.37278506D-16 -0.25805459D-17 -0.88085367D-15  0.24750998D-15
 -0.90358889D-16 -0.23348976D-15  0.13028979D-15  0.91284666D-17 -0.27456994D-16
  0.20017547D-16  0.39245930D-17 -0.34504470D-07  0.34504470D-07  0.11175579D-15
  0.17575180D-01 -0.36033219D-15  0.54698109D-15 -0.11050288D-07  0.11050288D-07
  0.19797609D-16  0.56285694D-02 -0.45935972D-17  0.44786317D-16
MO   14     MO 0.0        OCC NO =    0.0049944  ORB. ENERGY =    0.000000
  0.28115812D-14  0.52407921D-14  0.88843103D-14  0.13452047D-13  0.16818022D-13
  0.14466515D-13  0.55482197D-14 -0.38313962D-16 -0.50720511D-15 -0.18422613D-14
 -0.54650333D-14 -0.62973471D-14  0.76490660D-14 -0.95388210D-14 -0.22569803D-13
 -0.86369185D-14  0.17401625D-14  0.17018410D-14  0.11244783D-14  0.93195338D-15
  0.91143005D-15  0.60222037D-15  0.13901552D-13  0.13595414D-13  0.89830650D-14
 -0.42909932D-15 -0.56618500D-15  0.16064970D-13  0.38858213D-16 -0.69051008D-16
  0.13503363D-13  0.51527548D-17 -0.81275384D-17  0.10030457D-14  0.37373577D+01
 -0.37373577D+01 -0.11743645D-12  0.29349468D-04  0.10592055D-14 -0.11406751D-14
  0.74897788D+00 -0.74897788D+00 -0.29117981D-13  0.58817229D-05 -0.24590205D-16
  0.45839237D-16  0.18999576D-01 -0.18999576D-01 -0.36020729D-14  0.14920366D-06
 -0.96195520D-18  0.22819140D-15 -0.15090369D-15 -0.10065828D-14  0.69489441D-14
 -0.16255907D-15 -0.28818264D-16 -0.11780930D+00  0.61527016D-15  0.30485665D-14
  0.11780930D+00 -0.92515637D-06  0.45290342D-16  0.21000680D-15  0.47718845D-14
  0.18134689D-16 -0.13059378D-15 -0.40009280D-01 -0.15400571D-15 -0.49942663D-15
  0.40009280D-01 -0.31419285D-06 -0.74916126D-15 -0.13511432D-14 -0.19922598D-14
  0.30250895D-13  0.81947367D-14  0.23388369D-15  0.93805068D-16  0.35894357D-15
  0.74090766D-14  0.32479264D-16  0.34776544D-15  0.14682589D-13 -0.81827422D-18
 -0.42639937D-19  0.12712931D-14  0.87875901D-02 -0.87875901D-02  0.90469790D-14
  0.69008940D-07 -0.17873963D-15  0.57369000D-15  0.28142847D-02 -0.28142847D-02
 -0.31446319D-15  0.22100576D-07 -0.17188223D-16  0.38854432D-16
MO   15     MO 0.0        OCC NO =    0.0011472  ORB. ENERGY =    0.000000
  0.46355228D-01  0.86406224D-01  0.14647780D+00  0.22178720D+00  0.27728285D+00
  0.23851297D+00  0.91474858D-01  0.41385334D-03  0.54786433D-02  0.19899429D-01
  0.59031282D-01  0.68021629D-01 -0.82622400D-01 -0.32669301D+00  0.38516397D-01
  0.31681679D-01  0.16605544D-13  0.16239859D-13  0.10730362D-13 -0.24409151D-12
 -0.23871616D-12 -0.15772986D-12  0.52794935D+01  0.51632293D+01  0.34115639D+01
 -0.41640584D-14  0.13016311D-12 -0.80568605D+00 -0.32581361D-14 -0.19696809D-13
 -0.76539459D-01 -0.96106333D-16 -0.99298964D-15  0.11334062D-02 -0.20940929D+01
 -0.20940929D+01  0.41881859D+01  0.13107786D-15  0.22364817D-13  0.44318435D-12
 -0.93021952D-01 -0.93021952D-01  0.18604390D+00 -0.19627753D-16  0.21074946D-14
 -0.16027707D-12  0.12934863D-01  0.12934863D-01 -0.25869726D-01  0.12295622D-16
  0.23073273D-14 -0.43001921D-14 -0.26370512D-14  0.11554060D-11  0.14293283D+00
 -0.19018743D-14 -0.30410063D-11 -0.21439925D+00  0.98130278D-14 -0.42521172D-12
 -0.21439925D+00  0.62640684D-15  0.10901361D-14 -0.12995816D-12  0.41424518D-01
  0.97937403D-15  0.24140402D-12 -0.62136776D-01 -0.42497823D-14  0.14847046D-12
 -0.62136776D-01  0.17802213D-16 -0.93054865D-01 -0.16782828D+00 -0.24746270D+00
 -0.40362962D-01 -0.26235347D-01 -0.97150859D-03 -0.15505682D-14 -0.44937490D-13
  0.23409059D+00  0.54607910D-14 -0.55311740D-13  0.15167630D+00  0.42539486D-15
  0.13077939D-13 -0.32418779D-02 -0.80075266D-01 -0.80075266D-01  0.16015053D+00
  0.13037441D-16  0.54555208D-14 -0.21203316D-12 -0.48455381D-02 -0.48455381D-02
  0.96910762D-02  0.43404411D-17  0.16077595D-14  0.58251666D-14
MO   16     MO 0.0        OCC NO =    0.0008843  ORB. ENERGY =    0.000000
 -0.30161555D-15 -0.56221190D-15 -0.95307442D-15 -0.14430836D-14 -0.18041723D-14
 -0.15519117D-14 -0.59519154D-15 -0.47671700D-17 -0.63108405D-16 -0.22922121D-15
 -0.67998040D-15 -0.78354007D-15  0.95172612D-15  0.48511980D-14  0.32786494D-15
  0.42140291D-14  0.62272622D+01  0.60901264D+01  0.40240040D+01  0.26464598D-01
  0.25881799D-01  0.17101199D-01  0.12569253D-12  0.12292454D-12  0.81221444D-13
 -0.15967996D+01 -0.67860737D-02 -0.30687664D-13  0.73043994D-01  0.31042213D-03
  0.50726476D-14  0.11025034D-01  0.46854155D-04 -0.18558262D-15  0.11325004D-12
  0.11476693D-12 -0.22801697D-12 -0.14970017D-14  0.59008658D+01  0.25077480D-01
  0.51798277D-14  0.53728282D-14 -0.10552656D-13 -0.43778777D-15  0.26489599D+00
  0.11257541D-02 -0.14562710D-15 -0.14013727D-15  0.28576438D-15  0.90759951D-17
 -0.50720498D-01 -0.21555180D-03 -0.11549546D+00 -0.49083222D-03 -0.54659121D-13
 -0.11549546D+00 -0.49083222D-03  0.81909244D-13  0.46198184D+00  0.19633289D-02
  0.82068120D-13  0.16144426D-14 -0.16146883D-01 -0.68620968D-04 -0.37182459D-14
 -0.16146883D-01 -0.68620968D-04  0.55828646D-14  0.64587530D-01  0.27448387D-03
  0.55718731D-14  0.24965777D-15  0.84726512D-14  0.15280775D-13  0.22531494D-13
 -0.38785848D-14 -0.59516588D-14 -0.13651306D-16  0.18941394D+00  0.80497075D-03
  0.18152774D-13  0.12137901D+00  0.51583614D-03 -0.30589536D-14  0.64317129D-02
  0.27333473D-04 -0.72983831D-15 -0.11379375D-15 -0.16396151D-15  0.27775526D-15
 -0.19323570D-18  0.17354960D+00  0.73755051D-03  0.17637381D-15  0.17667893D-15
 -0.35305274D-15  0.26515922D-16  0.10958136D-01  0.46569850D-04
MO   17     MO 0.0        OCC NO =    0.0008843  ORB. ENERGY =    0.000000