b3lyp/6-311+G* opted                                                    
SP        RHF                                                         STO-3G              
Number of atoms                            I               11
Info1-9                                    I   N=           9
          21          21           0           0           0         110
           1           1           2
Charge                                     I               -1
Multiplicity                               I                1
Number of electrons                        I               56
Number of alpha electrons                  I               28
Number of beta electrons                   I               28
Number of basis functions                  I               55
Number of independent functions            I               55
Number of point charges in /Mol/           I                0
Number of translation vectors              I                0
Atomic numbers                             I   N=          11
           5           5           5           5           5           5
           5           5           5           5           5
Nuclear charges                            R   N=          11
  5.00000000E+00  5.00000000E+00  5.00000000E+00  5.00000000E+00  5.00000000E+00
  5.00000000E+00  5.00000000E+00  5.00000000E+00  5.00000000E+00  5.00000000E+00
  5.00000000E+00
Current cartesian coordinates              R   N=          33
  3.10544121E-16  1.67331470E+00  5.17937839E-02  6.38193982E-17  1.49095612E+00
 -3.43058409E+00 -6.66514339E-16 -1.49095612E+00 -3.43058409E+00 -5.09116602E-16
 -1.67331470E+00  5.17937839E-02 -8.75665841E-16 -4.06200412E+00 -2.11516840E+00
  1.11407658E-15  4.06200412E+00 -2.11516840E+00  2.03196110E-16  2.03196110E-16
  3.31855390E+00  7.28821553E-16  2.94740018E+00  3.06075179E+00 -7.14940442E-16
 -2.94740018E+00  3.06075179E+00  9.17712028E-16  4.73797994E+00  7.73929949E-01
 -1.40315211E-15 -4.73797994E+00  7.73929949E-01
Force Field                                I                0
Int Atom Types                             I   N=          11
           0           0           0           0           0           0
           0           0           0           0           0
MM charges                                 R   N=          11
  0.00000000E+00  0.00000000E+00  0.00000000E+00  0.00000000E+00  0.00000000E+00
  0.00000000E+00  0.00000000E+00  0.00000000E+00  0.00000000E+00  0.00000000E+00
  0.00000000E+00
Integer atomic weights                     I   N=          11
          11          11          11          11          11          11
          11          11          11          11          11
Real atomic weights                        R   N=          11
  1.10093053E+01  1.10093053E+01  1.10093053E+01  1.10093053E+01  1.10093053E+01
  1.10093053E+01  1.10093053E+01  1.10093053E+01  1.10093053E+01  1.10093053E+01
  1.10093053E+01
Atom fragment info                         I   N=          11
           0           0           0           0           0           0
           0           0           0           0           0
Atom residue num                           I   N=          11
           0           0           0           0           0           0
           0           0           0           0           0
Nuclear spins                              I   N=          11
           3           3           3           3           3           3
           3           3           3           3           3
Nuclear ZEff                               R   N=          11
 -2.75000000E+00 -2.75000000E+00 -2.75000000E+00 -2.75000000E+00 -2.75000000E+00
 -2.75000000E+00 -2.75000000E+00 -2.75000000E+00 -2.75000000E+00 -2.75000000E+00
 -2.75000000E+00
Nuclear QMom                               R   N=          11
  4.05900000E+00  4.05900000E+00  4.05900000E+00  4.05900000E+00  4.05900000E+00
  4.05900000E+00  4.05900000E+00  4.05900000E+00  4.05900000E+00  4.05900000E+00
  4.05900000E+00
Nuclear GFac                               R   N=          11
  2.68863700E+00  2.68863700E+00  2.68863700E+00  2.68863700E+00  2.68863700E+00
  2.68863700E+00  2.68863700E+00  2.68863700E+00  2.68863700E+00  2.68863700E+00
  2.68863700E+00
MicOpt                                     I   N=          11
          -1          -1          -1          -1          -1          -1
          -1          -1          -1          -1          -1
Number of contracted shells                I               22
Number of primitive shells                 I               66
Pure/Cartesian d shells                    I                0
Pure/Cartesian f shells                    I                0
Highest angular momentum                   I                1
Largest degree of contraction              I                3
Shell types                                I   N=          22
           0          -1           0          -1           0          -1
           0          -1           0          -1           0          -1
           0          -1           0          -1           0          -1
           0          -1           0          -1
Number of primitives per shell             I   N=          22
           3           3           3           3           3           3
           3           3           3           3           3           3
           3           3           3           3           3           3
           3           3           3           3
Shell to atom map                          I   N=          22
           1           1           2           2           3           3
           4           4           5           5           6           6
           7           7           8           8           9           9
          10          10          11          11
Primitive exponents                        R   N=          66
  4.87911132E+01  8.88736217E+00  2.40526704E+00  2.23695614E+00  5.19820500E-01
  1.69061760E-01  4.87911132E+01  8.88736217E+00  2.40526704E+00  2.23695614E+00
  5.19820500E-01  1.69061760E-01  4.87911132E+01  8.88736217E+00  2.40526704E+00
  2.23695614E+00  5.19820500E-01  1.69061760E-01  4.87911132E+01  8.88736217E+00
  2.40526704E+00  2.23695614E+00  5.19820500E-01  1.69061760E-01  4.87911132E+01
  8.88736217E+00  2.40526704E+00  2.23695614E+00  5.19820500E-01  1.69061760E-01
  4.87911132E+01  8.88736217E+00  2.40526704E+00  2.23695614E+00  5.19820500E-01
  1.69061760E-01  4.87911132E+01  8.88736217E+00  2.40526704E+00  2.23695614E+00
  5.19820500E-01  1.69061760E-01  4.87911132E+01  8.88736217E+00  2.40526704E+00
  2.23695614E+00  5.19820500E-01  1.69061760E-01  4.87911132E+01  8.88736217E+00
  2.40526704E+00  2.23695614E+00  5.19820500E-01  1.69061760E-01  4.87911132E+01
  8.88736217E+00  2.40526704E+00  2.23695614E+00  5.19820500E-01  1.69061760E-01
  4.87911132E+01  8.88736217E+00  2.40526704E+00  2.23695614E+00  5.19820500E-01
  1.69061760E-01
Contraction coefficients                   R   N=          66
  1.54328967E-01  5.35328142E-01  4.44634542E-01 -9.99672292E-02  3.99512826E-01
  7.00115469E-01  1.54328967E-01  5.35328142E-01  4.44634542E-01 -9.99672292E-02
  3.99512826E-01  7.00115469E-01  1.54328967E-01  5.35328142E-01  4.44634542E-01
 -9.99672292E-02  3.99512826E-01  7.00115469E-01  1.54328967E-01  5.35328142E-01
  4.44634542E-01 -9.99672292E-02  3.99512826E-01  7.00115469E-01  1.54328967E-01
  5.35328142E-01  4.44634542E-01 -9.99672292E-02  3.99512826E-01  7.00115469E-01
  1.54328967E-01  5.35328142E-01  4.44634542E-01 -9.99672292E-02  3.99512826E-01
  7.00115469E-01  1.54328967E-01  5.35328142E-01  4.44634542E-01 -9.99672292E-02
  3.99512826E-01  7.00115469E-01  1.54328967E-01  5.35328142E-01  4.44634542E-01
 -9.99672292E-02  3.99512826E-01  7.00115469E-01  1.54328967E-01  5.35328142E-01
  4.44634542E-01 -9.99672292E-02  3.99512826E-01  7.00115469E-01  1.54328967E-01
  5.35328142E-01  4.44634542E-01 -9.99672292E-02  3.99512826E-01  7.00115469E-01
  1.54328967E-01  5.35328142E-01  4.44634542E-01 -9.99672292E-02  3.99512826E-01
  7.00115469E-01
P(S=P) Contraction coefficients            R   N=          66
  0.00000000E+00  0.00000000E+00  0.00000000E+00  1.55916275E-01  6.07683719E-01
  3.91957393E-01  0.00000000E+00  0.00000000E+00  0.00000000E+00  1.55916275E-01
  6.07683719E-01  3.91957393E-01  0.00000000E+00  0.00000000E+00  0.00000000E+00
  1.55916275E-01  6.07683719E-01  3.91957393E-01  0.00000000E+00  0.00000000E+00
  0.00000000E+00  1.55916275E-01  6.07683719E-01  3.91957393E-01  0.00000000E+00
  0.00000000E+00  0.00000000E+00  1.55916275E-01  6.07683719E-01  3.91957393E-01
  0.00000000E+00  0.00000000E+00  0.00000000E+00  1.55916275E-01  6.07683719E-01
  3.91957393E-01  0.00000000E+00  0.00000000E+00  0.00000000E+00  1.55916275E-01
  6.07683719E-01  3.91957393E-01  0.00000000E+00  0.00000000E+00  0.00000000E+00
  1.55916275E-01  6.07683719E-01  3.91957393E-01  0.00000000E+00  0.00000000E+00
  0.00000000E+00  1.55916275E-01  6.07683719E-01  3.91957393E-01  0.00000000E+00
  0.00000000E+00  0.00000000E+00  1.55916275E-01  6.07683719E-01  3.91957393E-01
  0.00000000E+00  0.00000000E+00  0.00000000E+00  1.55916275E-01  6.07683719E-01
  3.91957393E-01
Coordinates of each shell                  R   N=          66
  0.00000000E+00  1.67331470E+00  5.17937856E-02  0.00000000E+00  1.67331470E+00
  5.17937856E-02  0.00000000E+00  1.49095612E+00 -3.43058408E+00  0.00000000E+00
  1.49095612E+00 -3.43058408E+00 -1.82583434E-16 -1.49095612E+00 -3.43058408E+00
 -1.82583434E-16 -1.49095612E+00 -3.43058408E+00 -2.04915181E-16 -1.67331470E+00
  5.17937856E-02 -2.04915181E-16 -1.67331470E+00  5.17937856E-02  0.00000000E+00
 -4.06200412E+00 -2.11516840E+00  0.00000000E+00 -4.06200412E+00 -2.11516840E+00
  4.97435605E-16  4.06200412E+00 -2.11516840E+00  4.97435605E-16  4.06200412E+00
 -2.11516840E+00 -1.02260837E-32  2.04521675E-32  3.31855390E+00 -1.02260837E-32
  2.04521675E-32  3.31855390E+00  0.00000000E+00  2.94740018E+00  3.06075179E+00
  0.00000000E+00  2.94740018E+00  3.06075179E+00 -3.60940499E-16 -2.94740018E+00
  3.06075179E+00 -3.60940499E-16 -2.94740018E+00  3.06075179E+00  0.00000000E+00
  4.73797994E+00  7.73929951E-01  0.00000000E+00  4.73797994E+00  7.73929951E-01
 -5.80216034E-16 -4.73797994E+00  7.73929951E-01 -5.80216034E-16 -4.73797994E+00
  7.73929951E-01
Constraint Structure                       R   N=          33
  0.00000000E+00  1.67331470E+00  5.17937856E-02  0.00000000E+00  1.49095612E+00
 -3.43058408E+00 -1.82583434E-16 -1.49095612E+00 -3.43058408E+00 -2.04915181E-16
 -1.67331470E+00  5.17937856E-02  0.00000000E+00 -4.06200412E+00 -2.11516840E+00
  4.97435605E-16  4.06200412E+00 -2.11516840E+00 -1.02260837E-32  2.04521675E-32
  3.31855390E+00  0.00000000E+00  2.94740018E+00  3.06075179E+00 -3.60940499E-16
 -2.94740018E+00  3.06075179E+00  0.00000000E+00  4.73797994E+00  7.73929951E-01
 -5.80216034E-16 -4.73797994E+00  7.73929951E-01
Num ILSW                                   I              100
ILSW                                       I   N=         100
           0           0           0           0           2           0
           0           0           0           0           0          -1
           0           0           0           0           0           0
           0           0           1           0           0           0
           1           0           0           0           0           0
           0           0      100000           0          -1           0
           0           0           0           0           0           0
           0           0           0           1           0           0
           0           0           1           0           0           0
           0           0           4          40           0           0
           0           0           0           0           0           0
           0           0           0           0           0           0
           0           0           0           0           0           0
           0           0           0           0           0           0
           0           0           0           0           0           0
           0           0           0           0           0           0
           0           0           0           0
Num RLSW                                   I               40
RLSW                                       R   N=          40
  1.00000000E+00  1.00000000E+00  1.00000000E+00  1.00000000E+00  1.00000000E+00
  0.00000000E+00  0.00000000E+00  1.00000000E+00  0.00000000E+00  0.00000000E+00
  0.00000000E+00  0.00000000E+00  1.00000000E+00  0.00000000E+00  0.00000000E+00
  0.00000000E+00  0.00000000E+00  1.00000000E+00  0.00000000E+00  0.00000000E+00
  0.00000000E+00  0.00000000E+00  1.00000000E+00  0.00000000E+00  0.00000000E+00
  0.00000000E+00  0.00000000E+00  1.00000000E+00  0.00000000E+00  0.00000000E+00
  0.00000000E+00  0.00000000E+00  0.00000000E+00  0.00000000E+00  0.00000000E+00
  0.00000000E+00  0.00000000E+00  0.00000000E+00  1.00000000E+00  1.00000000E+00
MxBond                                     I                6
NBond                                      I   N=          11
           6           3           3           6           3           3
           4           3           3           3           3
IBond                                      I   N=          66
           2           4           6           7           8          10
           1           3           6           0           0           0
           2           4           5           0           0           0
           1           3           5           7           9          11
           3           4          11           0           0           0
           1           2          10           0           0           0
           1           4           8           9           0           0
           1           7          10           0           0           0
           4           7          11           0           0           0
           1           6           8           0           0           0
           4           5           9           0           0           0
RBond                                      R   N=          66
  1.00000000E+00  1.00000000E+00  1.00000000E+00  1.00000000E+00  1.00000000E+00
  1.00000000E+00  1.00000000E+00  1.00000000E+00  2.00000000E+00  0.00000000E+00
  0.00000000E+00  0.00000000E+00  1.00000000E+00  1.00000000E+00  2.00000000E+00
  0.00000000E+00  0.00000000E+00  0.00000000E+00  1.00000000E+00  1.00000000E+00
  1.00000000E+00  1.00000000E+00  1.00000000E+00  1.00000000E+00  2.00000000E+00
  1.00000000E+00  1.00000000E+00  0.00000000E+00  0.00000000E+00  0.00000000E+00
  1.00000000E+00  2.00000000E+00  1.00000000E+00  0.00000000E+00  0.00000000E+00
  0.00000000E+00  1.00000000E+00  1.00000000E+00  1.00000000E+00  1.00000000E+00
  0.00000000E+00  0.00000000E+00  1.00000000E+00  1.00000000E+00  2.00000000E+00
  0.00000000E+00  0.00000000E+00  0.00000000E+00  1.00000000E+00  1.00000000E+00
  2.00000000E+00  0.00000000E+00  0.00000000E+00  0.00000000E+00  1.00000000E+00
  1.00000000E+00  2.00000000E+00  0.00000000E+00  0.00000000E+00  0.00000000E+00
  1.00000000E+00  1.00000000E+00  2.00000000E+00  0.00000000E+00  0.00000000E+00
  0.00000000E+00
Virial Ratio                               R      1.987927389459967E+00
SCF Energy                                 R     -2.675353728402289E+02
Total Energy                               R     -2.675353728402289E+02
RMS Density                                R      2.228896536754038E-09
External E-field                           R   N=          35
  0.00000000E+00  0.00000000E+00  0.00000000E+00  0.00000000E+00  0.00000000E+00
  0.00000000E+00  0.00000000E+00  0.00000000E+00  0.00000000E+00  0.00000000E+00
  0.00000000E+00  0.00000000E+00  0.00000000E+00  0.00000000E+00  0.00000000E+00
  0.00000000E+00  0.00000000E+00  0.00000000E+00  0.00000000E+00  0.00000000E+00
  0.00000000E+00  0.00000000E+00  0.00000000E+00  0.00000000E+00  0.00000000E+00
  0.00000000E+00  0.00000000E+00  0.00000000E+00  0.00000000E+00  0.00000000E+00
  0.00000000E+00  0.00000000E+00  0.00000000E+00  0.00000000E+00  0.00000000E+00
IOpCl                                      I                0
IROHF                                      I                0
Alpha Orbital Energies                     R   N=          55
 -7.16624706E+00 -7.16617580E+00 -7.14782048E+00 -7.13654959E+00 -7.13654577E+00
 -7.12100139E+00 -7.12033202E+00 -7.11285206E+00 -7.11282677E+00 -7.10635977E+00
 -7.10633001E+00 -6.72176845E-01 -6.13627786E-01 -5.31771387E-01 -4.42101649E-01
 -4.33851079E-01 -2.67605927E-01 -2.65485606E-01 -2.51058847E-01 -1.75923881E-01
 -1.72599614E-01 -1.62817627E-01 -1.40893449E-01 -1.14579014E-01 -8.33738781E-02
 -4.97335186E-02  1.75041848E-02  3.00949992E-02  3.42256598E-01  3.45602187E-01
  4.46138803E-01  4.59531370E-01  4.66499811E-01  4.94646921E-01  5.42025681E-01
  5.67625452E-01  5.84378218E-01  5.87070884E-01  6.39594026E-01  7.46352667E-01
  7.68790335E-01  7.74650754E-01  8.49949149E-01  8.53707852E-01  9.05070288E-01
  9.23589287E-01  9.48992045E-01  1.08581594E+00  1.10168589E+00  1.18251595E+00
  1.21052959E+00  1.25308783E+00  1.32570048E+00  1.43327995E+00  1.47513451E+00
Alpha MO coefficients                      R   N=        3025
  6.99338665E-01  3.44973469E-02  0.00000000E+00 -1.61976965E-03  1.35523652E-04
  3.69491016E-06 -3.29341800E-03  0.00000000E+00  8.18000493E-04 -2.25978572E-03
 -3.69491016E-06  3.29341800E-03  0.00000000E+00  8.18000493E-04  2.25978572E-03
 -6.99338665E-01 -3.44973469E-02  0.00000000E+00 -1.61976965E-03 -1.35523652E-04
 -3.07845458E-03  2.98070906E-03  0.00000000E+00  1.84609814E-03  1.45452075E-03
  3.07845458E-03 -2.98070906E-03  0.00000000E+00  1.84609814E-03 -1.45452075E-03
  0.00000000E+00  0.00000000E+00  0.00000000E+00 -8.04251888E-04  0.00000000E+00
  1.99893179E-03 -3.55900446E-03  0.00000000E+00  1.46132502E-03  2.41869079E-03
 -1.99893179E-03  3.55900446E-03  0.00000000E+00  1.46132502E-03 -2.41869079E-03
  7.72137219E-03 -2.52533711E-03  0.00000000E+00  2.02002594E-03  5.28265807E-04
 -7.72137219E-03  2.52533711E-03  0.00000000E+00  2.02002594E-03 -5.28265807E-04
  6.99896871E-01  2.70353974E-02  0.00000000E+00  4.06784443E-03  6.52405362E-04
 -4.69892983E-04 -2.53834494E-03  0.00000000E+00  4.39213613E-04 -2.36587907E-03
 -4.69892983E-04 -2.53834494E-03  0.00000000E+00 -4.39213613E-04 -2.36587907E-03
  6.99896871E-01  2.70353974E-02  0.00000000E+00 -4.06784443E-03  6.52405362E-04
  3.39033061E-03 -2.57498043E-03  0.00000000E+00 -1.56666460E-03 -1.39173536E-03
  3.39033061E-03 -2.57498043E-03  0.00000000E+00  1.56666460E-03 -1.39173536E-03
 -4.13041094E-03 -4.16753711E-03  0.00000000E+00  0.00000000E+00  3.51815776E-03
  2.72751920E-03 -2.33652961E-03  0.00000000E+00  8.10293723E-04  1.78372594E-03
  2.72751920E-03 -2.33652961E-03  0.00000000E+00 -8.10293723E-04  1.78372594E-03
  7.10218279E-03 -3.26549230E-03  0.00000000E+00  2.54652419E-03  6.03895910E-04
  7.10218279E-03 -3.26549230E-03  0.00000000E+00 -2.54652419E-03  6.03895910E-04
  3.47901674E-03 -3.11988171E-03  0.00000000E+00  1.53569417E-03 -3.06391856E-03
 -8.06577506E-05 -3.96161532E-05  0.00000000E+00 -2.85071867E-05 -3.56568533E-05
 -8.06577506E-05 -3.96161532E-05  0.00000000E+00  2.85071867E-05 -3.56568533E-05
  3.47901674E-03 -3.11988171E-03  0.00000000E+00 -1.53569417E-03 -3.06391856E-03
 -4.49643906E-04 -6.08934823E-04  0.00000000E+00 -2.71105038E-04 -3.29529970E-04
 -4.49643906E-04 -6.08934823E-04  0.00000000E+00  2.71105038E-04 -3.29529970E-04
  9.90080570E-01  4.01052327E-02  0.00000000E+00  0.00000000E+00 -5.05252848E-03
  1.08405928E-02 -6.15202952E-03  0.00000000E+00  3.79501760E-03 -8.70184162E-04
  1.08405928E-02 -6.15202952E-03  0.00000000E+00 -3.79501760E-03 -8.70184162E-04
  4.60820457E-03  7.41148898E-04  0.00000000E+00 -4.93850840E-04 -1.24603767E-04
  4.60820457E-03  7.41148898E-04  0.00000000E+00  4.93850840E-04 -1.24603767E-04
 -7.64562747E-03 -4.51969153E-03  0.00000000E+00 -3.24766082E-03 -6.66380535E-04
  2.41227239E-03  4.89115210E-04  0.00000000E+00 -1.52668671E-04  3.83106084E-04
 -2.41227239E-03 -4.89115210E-04  0.00000000E+00 -1.52668671E-04 -3.83106084E-04
  7.64562747E-03  4.51969153E-03  0.00000000E+00 -3.24766082E-03  6.66380535E-04
 -1.33988464E-02  4.52350478E-03  0.00000000E+00 -1.28342257E-03  2.88491390E-03
  1.33988464E-02 -4.52350478E-03  0.00000000E+00 -1.28342257E-03 -2.88491390E-03
  0.00000000E+00  0.00000000E+00  0.00000000E+00  1.16773006E-04  0.00000000E+00
  1.44430686E-02 -4.73365876E-03  0.00000000E+00 -2.42605947E-03  2.04965009E-03
 -1.44430686E-02  4.73365876E-03  0.00000000E+00 -2.42605947E-03 -2.04965009E-03
  6.99752018E-01  2.95868518E-02  0.00000000E+00 -5.99463547E-03 -1.20763378E-03
 -6.99752018E-01 -2.95868518E-02  0.00000000E+00 -5.99463547E-03  1.20763378E-03
 -6.99803280E-03 -4.80664178E-03  0.00000000E+00 -2.90414967E-03 -6.29835719E-04
  2.22363052E-03  2.95741333E-04  0.00000000E+00 -3.42492422E-06  3.26754304E-04
  2.22363052E-03  2.95741333E-04  0.00000000E+00  3.42492422E-06  3.26754304E-04
 -6.99803280E-03 -4.80664178E-03  0.00000000E+00  2.90414967E-03 -6.29835719E-04
  1.34041124E-02 -4.53823116E-03  0.00000000E+00  1.28068126E-03 -2.87534018E-03
  1.34041124E-02 -4.53823116E-03  0.00000000E+00 -1.28068126E-03 -2.87534018E-03
 -6.94108880E-03  2.82835920E-04  0.00000000E+00  0.00000000E+00 -6.02216724E-04
  1.41889681E-02 -4.79523597E-03  0.00000000E+00 -2.37934958E-03  2.13410894E-03
  1.41889681E-02 -4.79523597E-03  0.00000000E+00  2.37934958E-03  2.13410894E-03
  6.99753952E-01  2.95379024E-02  0.00000000E+00 -5.96331239E-03 -1.18838253E-03
  6.99753952E-01  2.95379024E-02  0.00000000E+00  5.96331239E-03 -1.18838253E-03
  8.77531849E-04 -3.50228587E-03  0.00000000E+00  6.01526698E-04  3.39552433E-03
  6.97869737E-01  2.29261942E-02  0.00000000E+00  2.46931209E-03  3.71051423E-03
  6.97869737E-01  2.29261942E-02  0.00000000E+00 -2.46931209E-03  3.71051423E-03
  8.77531849E-04 -3.50228587E-03  0.00000000E+00 -6.01526698E-04  3.39552433E-03
  5.88179120E-02 -2.23818049E-03  0.00000000E+00 -1.76780678E-03  2.18168957E-03
  5.88179120E-02 -2.23818049E-03  0.00000000E+00  1.76780678E-03  2.18168957E-03
  2.19001944E-04  7.34144905E-05  0.00000000E+00  0.00000000E+00  3.38503048E-06
 -1.53514945E-03 -5.15185686E-04  0.00000000E+00  1.43560440E-04  3.22266548E-04
 -1.53514945E-03 -5.15185686E-04  0.00000000E+00 -1.43560440E-04  3.22266548E-04
 -3.35872955E-03 -2.81245857E-04  0.00000000E+00 -1.66772837E-04  2.42202824E-04
 -3.35872955E-03 -2.81245857E-04  0.00000000E+00  1.66772837E-04  2.42202824E-04
  3.31243805E-04 -4.06064426E-03  0.00000000E+00  6.03990028E-04  2.92320066E-03
  6.97665435E-01  3.35903871E-02  0.00000000E+00 -3.76445202E-03  4.18406701E-03
 -6.97665435E-01 -3.35903871E-02  0.00000000E+00 -3.76445202E-03 -4.18406701E-03
 -3.31243805E-04  4.06064426E-03  0.00000000E+00  6.03990028E-04 -2.92320066E-03
 -5.69664180E-02  2.79178864E-03  0.00000000E+00  2.11089159E-03 -1.95233425E-03
  5.69664180E-02 -2.79178864E-03  0.00000000E+00  2.11089159E-03  1.95233425E-03
  0.00000000E+00  0.00000000E+00  0.00000000E+00 -1.23472489E-05  0.00000000E+00
 -8.85108540E-04 -2.86907471E-04  0.00000000E+00  6.15206835E-05  2.16885824E-04
  8.85108540E-04  2.86907471E-04  0.00000000E+00  6.15206835E-05 -2.16885824E-04
 -3.54882583E-03 -8.42754715E-05  0.00000000E+00 -2.57629556E-04  1.24797158E-04
  3.54882583E-03  8.42754715E-05  0.00000000E+00 -2.57629556E-04 -1.24797158E-04
  2.65860908E-03  3.86940928E-03  0.00000000E+00  2.13054022E-03 -1.94180421E-03
  5.69167073E-02  8.45005969E-03  0.00000000E+00  2.80897370E-03  1.66063597E-03
 -5.69167073E-02 -8.45005969E-03  0.00000000E+00  2.80897370E-03 -1.66063597E-03
 -2.65860908E-03 -3.86940928E-03  0.00000000E+00  2.13054022E-03  1.94180421E-03
  6.97561562E-01  3.04022312E-02  0.00000000E+00  5.03639569E-03  3.68921513E-03
 -6.97561562E-01 -3.04022312E-02  0.00000000E+00  5.03639569E-03 -3.68921513E-03
  0.00000000E+00  0.00000000E+00  0.00000000E+00  2.49820211E-04  0.00000000E+00
 -2.27012194E-03 -6.37433227E-04  0.00000000E+00  1.30262039E-04  3.63119598E-04
  2.27012194E-03  6.37433227E-04  0.00000000E+00  1.30262039E-04 -3.63119598E-04
  1.30492991E-02  5.73023736E-03  0.00000000E+00 -3.95535538E-04 -3.24939616E-03
 -1.30492991E-02 -5.73023736E-03  0.00000000E+00 -3.95535538E-04  3.24939616E-03
 -3.11906475E-03 -3.69313683E-03  0.00000000E+00 -2.31105289E-03  1.59786431E-03
 -5.89371633E-02 -7.38003176E-03  0.00000000E+00 -3.37680363E-03 -1.36971807E-03
 -5.89371633E-02 -7.38003176E-03  0.00000000E+00  3.37680363E-03 -1.36971807E-03
 -3.11906475E-03 -3.69313683E-03  0.00000000E+00  2.31105289E-03  1.59786431E-03
  6.97424581E-01  3.01655809E-02  0.00000000E+00  4.85333405E-03  3.62969681E-03
  6.97424581E-01  3.01655809E-02  0.00000000E+00 -4.85333405E-03  3.62969681E-03
  8.22738433E-04 -5.46558336E-04  0.00000000E+00  0.00000000E+00  3.15006167E-04
  2.66378665E-03  7.18486799E-04  0.00000000E+00 -1.57865208E-04 -4.43320434E-04
  2.66378665E-03  7.18486799E-04  0.00000000E+00  1.57865208E-04 -4.43320434E-04
 -1.30666264E-02 -5.68324583E-03  0.00000000E+00  3.54934445E-04  3.21630291E-03
 -1.30666264E-02 -5.68324583E-03  0.00000000E+00 -3.54934445E-04  3.21630291E-03
 -2.35478496E-03 -3.52755644E-03  0.00000000E+00 -1.18670179E-03 -2.55024598E-03
  1.78716149E-03 -2.47917827E-04  0.00000000E+00 -2.37432565E-05 -2.35932402E-04
  1.78716149E-03 -2.47917827E-04  0.00000000E+00  2.37432565E-05 -2.35932402E-04
 -2.35478496E-03 -3.52755644E-03  0.00000000E+00  1.18670179E-03 -2.55024598E-03
 -2.88572003E-03  4.59231363E-04  0.00000000E+00  2.34733849E-04  2.92012085E-04
 -2.88572003E-03  4.59231363E-04  0.00000000E+00 -2.34733849E-04  2.92012085E-04
 -1.48199169E-02 -1.13023528E-02  0.00000000E+00  0.00000000E+00  2.95397531E-04
  6.99771538E-01  2.99283278E-02  0.00000000E+00 -2.36976834E-03 -5.31766323E-03
  6.99771538E-01  2.99283278E-02  0.00000000E+00  2.36976834E-03 -5.31766323E-03
 -1.41644765E-02 -5.98861500E-03  0.00000000E+00  1.68234685E-03 -2.83089872E-03
 -1.41644765E-02 -5.98861500E-03  0.00000000E+00 -1.68234685E-03 -2.83089872E-03
 -1.36996629E-03 -4.59218556E-03  0.00000000E+00 -4.35253876E-04 -3.10206837E-03
  1.06231889E-03 -1.96226867E-04  0.00000000E+00 -3.01413365E-05 -1.96790564E-04
 -1.06231889E-03  1.96226867E-04  0.00000000E+00 -3.01413365E-05  1.96790564E-04
  1.36996629E-03  4.59218556E-03  0.00000000E+00 -4.35253876E-04  3.10206837E-03
  2.54823825E-03 -3.78606355E-04  0.00000000E+00 -1.65914011E-04 -2.41401692E-04
 -2.54823825E-03  3.78606355E-04  0.00000000E+00 -1.65914011E-04  2.41401692E-04
  0.00000000E+00  0.00000000E+00  0.00000000E+00 -6.69088660E-03  0.00000000E+00
  6.99880426E-01  3.00501154E-02  0.00000000E+00 -2.48122406E-03 -5.43712470E-03
 -6.99880426E-01 -3.00501154E-02  0.00000000E+00 -2.48122406E-03  5.43712470E-03
 -1.43545512E-02 -5.96214685E-03  0.00000000E+00  1.66691039E-03 -2.79558078E-03
  1.43545512E-02  5.96214685E-03  0.00000000E+00  1.66691039E-03  2.79558078E-03
 -1.30839764E-01  2.65355437E-01  0.00000000E+00  1.08785355E-02  1.41928502E-02
 -6.34050784E-02  1.28762559E-01  0.00000000E+00 -2.70338372E-03  4.79903713E-02
 -6.34050784E-02  1.28762559E-01  0.00000000E+00  2.70338372E-03  4.79903713E-02
 -1.30839764E-01  2.65355437E-01  0.00000000E+00 -1.08785355E-02  1.41928502E-02
 -7.16233828E-02  1.39414494E-01  0.00000000E+00  4.70916398E-02  4.61597365E-02
 -7.16233828E-02  1.39414494E-01  0.00000000E+00 -4.70916398E-02  4.61597365E-02
 -8.33532739E-02  1.69222128E-01  0.00000000E+00  0.00000000E+00 -5.70417596E-02
 -7.70388646E-02  1.50132131E-01  0.00000000E+00 -2.95652313E-02 -6.11532174E-02
 -7.70388646E-02  1.50132131E-01  0.00000000E+00  2.95652313E-02 -6.11532174E-02
 -8.00659956E-02  1.56551500E-01  0.00000000E+00 -7.14411563E-02 -1.35341024E-02
 -8.00659956E-02  1.56551500E-01  0.00000000E+00  7.14411563E-02 -1.35341024E-02
 -1.01884404E-01  2.00945067E-01  0.00000000E+00  1.27472790E-01  6.41244206E-03
 -4.03741700E-02  8.11855785E-02  0.00000000E+00  5.02071489E-02  4.33085338E-02
  4.03741700E-02 -8.11855785E-02  0.00000000E+00  5.02071489E-02 -4.33085338E-02
  1.01884404E-01 -2.00945067E-01  0.00000000E+00  1.27472790E-01 -6.41244206E-03
  9.43401893E-02 -1.84778015E-01  0.00000000E+00 -4.21115350E-02 -7.01620259E-02
 -9.43401893E-02  1.84778015E-01  0.00000000E+00 -4.21115350E-02  7.01620259E-02
  0.00000000E+00  0.00000000E+00  0.00000000E+00  8.15262111E-02  0.00000000E+00
 -7.86697215E-02  1.52495179E-01  0.00000000E+00  6.70758606E-03 -7.83720871E-02
  7.86697215E-02 -1.52495179E-01  0.00000000E+00  6.70758606E-03  7.83720871E-02
 -1.12491464E-01  2.24096761E-01  0.00000000E+00 -8.74292792E-02 -2.54840319E-02
  1.12491464E-01 -2.24096761E-01  0.00000000E+00 -8.74292792E-02  2.54840319E-02
  2.78941639E-03 -8.10464000E-03  0.00000000E+00 -1.87467446E-02  1.88362396E-01
  1.16819656E-01 -2.56510429E-01  0.00000000E+00  1.87499915E-02 -4.77584838E-02
  1.16819656E-01 -2.56510429E-01  0.00000000E+00 -1.87499915E-02 -4.77584838E-02
  2.78941639E-03 -8.10464000E-03  0.00000000E+00  1.87467446E-02  1.88362396E-01
  7.77032506E-02 -1.67739397E-01  0.00000000E+00 -7.48794361E-02  9.17172051E-03
  7.77032506E-02 -1.67739397E-01  0.00000000E+00  7.48794361E-02  9.17172051E-03
 -1.23814479E-01  2.70363204E-01  0.00000000E+00  0.00000000E+00 -4.38976208E-02
 -8.92727445E-02  1.93025515E-01  0.00000000E+00 -6.53716655E-02 -2.84403039E-02