b3lyp/6-311+G* opted                                                    
SP        RB3LYP                                                      6-311+G(d)          
Number of atoms                            I                5
Info1-9                                    I   N=           9
          15          15           0           0           0         110
           1          18        -502
Charge                                     I                1
Multiplicity                               I                1
Number of electrons                        I               14
Number of alpha electrons                  I                7
Number of beta electrons                   I                7
Number of basis functions                  I              110
Number of independent functions            I              110
Number of point charges in /Mol/           I                0
Number of translation vectors              I                0
Atomic numbers                             I   N=           5
           3           3           3           3           3
Nuclear charges                            R   N=           5
  3.00000000E+00  3.00000000E+00  3.00000000E+00  3.00000000E+00  3.00000000E+00
Current cartesian coordinates              R   N=          15
  3.21516872E-03 -1.28109548E+00  2.64226276E+00 -5.15673898E-03 -1.53321974E+00
 -2.49636352E+00  1.56657455E-03  3.04214583E+00 -1.45468161E-01  5.21777230E+00
 -1.14730868E-01 -2.24142150E-03 -5.21739731E+00 -1.13099748E-01  1.81034744E-03
Force Field                                I                0
Int Atom Types                             I   N=           5
           0           0           0           0           0
MM charges                                 R   N=           5
  0.00000000E+00  0.00000000E+00  0.00000000E+00  0.00000000E+00  0.00000000E+00
Integer atomic weights                     I   N=           5
           7           7           7           7           7
Real atomic weights                        R   N=           5
  7.01600450E+00  7.01600450E+00  7.01600450E+00  7.01600450E+00  7.01600450E+00
Atom fragment info                         I   N=           5
           0           0           0           0           0
Atom residue num                           I   N=           5
           0           0           0           0           0
Nuclear spins                              I   N=           5
           3           3           3           3           3
Nuclear ZEff                               R   N=           5
 -1.35000000E+00 -1.35000000E+00 -1.35000000E+00 -1.35000000E+00 -1.35000000E+00
Nuclear QMom                               R   N=           5
 -4.01000000E+00 -4.01000000E+00 -4.01000000E+00 -4.01000000E+00 -4.01000000E+00
Nuclear GFac                               R   N=           5
  3.25642400E+00  3.25642400E+00  3.25642400E+00  3.25642400E+00  3.25642400E+00
MicOpt                                     I   N=           5
          -1          -1          -1          -1          -1
Number of contracted shells                I               30
Number of primitive shells                 I               65
Pure/Cartesian d shells                    I                0
Pure/Cartesian f shells                    I                0
Highest angular momentum                   I                2
Largest degree of contraction              I                6
Shell types                                I   N=          30
           0          -1          -1          -1          -1          -2
           0          -1          -1          -1          -1          -2
           0          -1          -1          -1          -1          -2
           0          -1          -1          -1          -1          -2
           0          -1          -1          -1          -1          -2
Number of primitives per shell             I   N=          30
           6           3           1           1           1           1
           6           3           1           1           1           1
           6           3           1           1           1           1
           6           3           1           1           1           1
           6           3           1           1           1           1
Shell to atom map                          I   N=          30
           1           1           1           1           1           1
           2           2           2           2           2           2
           3           3           3           3           3           3
           4           4           4           4           4           4
           5           5           5           5           5           5
Primitive exponents                        R   N=          65
  9.00460000E+02  1.34433000E+02  3.04365000E+01  8.62639000E+00  2.48332000E+00
  3.03179000E-01  4.86890000E+00  8.56924000E-01  2.43227000E-01  6.35070000E-02
  2.43683000E-02  7.40000000E-03  2.00000000E-01  9.00460000E+02  1.34433000E+02
  3.04365000E+01  8.62639000E+00  2.48332000E+00  3.03179000E-01  4.86890000E+00
  8.56924000E-01  2.43227000E-01  6.35070000E-02  2.43683000E-02  7.40000000E-03
  2.00000000E-01  9.00460000E+02  1.34433000E+02  3.04365000E+01  8.62639000E+00
  2.48332000E+00  3.03179000E-01  4.86890000E+00  8.56924000E-01  2.43227000E-01
  6.35070000E-02  2.43683000E-02  7.40000000E-03  2.00000000E-01  9.00460000E+02
  1.34433000E+02  3.04365000E+01  8.62639000E+00  2.48332000E+00  3.03179000E-01
  4.86890000E+00  8.56924000E-01  2.43227000E-01  6.35070000E-02  2.43683000E-02
  7.40000000E-03  2.00000000E-01  9.00460000E+02  1.34433000E+02  3.04365000E+01
  8.62639000E+00  2.48332000E+00  3.03179000E-01  4.86890000E+00  8.56924000E-01
  2.43227000E-01  6.35070000E-02  2.43683000E-02  7.40000000E-03  2.00000000E-01
Contraction coefficients                   R   N=          65
  2.28704037E-03  1.76350029E-02  8.73434143E-02  2.80977046E-01  6.58741108E-01
  1.18712019E-01  9.33292995E-02  9.43044995E-01 -2.79826999E-03  1.00000000E+00
  1.00000000E+00  1.00000000E+00  1.00000000E+00  2.28704037E-03  1.76350029E-02
  8.73434143E-02  2.80977046E-01  6.58741108E-01  1.18712019E-01  9.33292995E-02
  9.43044995E-01 -2.79826999E-03  1.00000000E+00  1.00000000E+00  1.00000000E+00
  1.00000000E+00  2.28704037E-03  1.76350029E-02  8.73434143E-02  2.80977046E-01
  6.58741108E-01  1.18712019E-01  9.33292995E-02  9.43044995E-01 -2.79826999E-03
  1.00000000E+00  1.00000000E+00  1.00000000E+00  1.00000000E+00  2.28704037E-03
  1.76350029E-02  8.73434143E-02  2.80977046E-01  6.58741108E-01  1.18712019E-01
  9.33292995E-02  9.43044995E-01 -2.79826999E-03  1.00000000E+00  1.00000000E+00
  1.00000000E+00  1.00000000E+00  2.28704037E-03  1.76350029E-02  8.73434143E-02
  2.80977046E-01  6.58741108E-01  1.18712019E-01  9.33292995E-02  9.43044995E-01
 -2.79826999E-03  1.00000000E+00  1.00000000E+00  1.00000000E+00  1.00000000E+00
P(S=P) Contraction coefficients            R   N=          65
  0.00000000E+00  0.00000000E+00  0.00000000E+00  0.00000000E+00  0.00000000E+00
  0.00000000E+00  3.27660966E-02  1.59791983E-01  8.85666908E-01  1.00000000E+00
  1.00000000E+00  1.00000000E+00  0.00000000E+00  0.00000000E+00  0.00000000E+00
  0.00000000E+00  0.00000000E+00  0.00000000E+00  0.00000000E+00  3.27660966E-02
  1.59791983E-01  8.85666908E-01  1.00000000E+00  1.00000000E+00  1.00000000E+00
  0.00000000E+00  0.00000000E+00  0.00000000E+00  0.00000000E+00  0.00000000E+00
  0.00000000E+00  0.00000000E+00  3.27660966E-02  1.59791983E-01  8.85666908E-01
  1.00000000E+00  1.00000000E+00  1.00000000E+00  0.00000000E+00  0.00000000E+00
  0.00000000E+00  0.00000000E+00  0.00000000E+00  0.00000000E+00  0.00000000E+00
  3.27660966E-02  1.59791983E-01  8.85666908E-01  1.00000000E+00  1.00000000E+00
  1.00000000E+00  0.00000000E+00  0.00000000E+00  0.00000000E+00  0.00000000E+00
  0.00000000E+00  0.00000000E+00  0.00000000E+00  3.27660966E-02  1.59791983E-01
  8.85666908E-01  1.00000000E+00  1.00000000E+00  1.00000000E+00  0.00000000E+00
Coordinates of each shell                  R   N=          90
  3.21516872E-03 -1.28109548E+00  2.64226276E+00  3.21516872E-03 -1.28109548E+00
  2.64226276E+00  3.21516872E-03 -1.28109548E+00  2.64226276E+00  3.21516872E-03
 -1.28109548E+00  2.64226276E+00  3.21516872E-03 -1.28109548E+00  2.64226276E+00
  3.21516872E-03 -1.28109548E+00  2.64226276E+00 -5.15673898E-03 -1.53321974E+00
 -2.49636352E+00 -5.15673898E-03 -1.53321974E+00 -2.49636352E+00 -5.15673898E-03
 -1.53321974E+00 -2.49636352E+00 -5.15673898E-03 -1.53321974E+00 -2.49636352E+00
 -5.15673898E-03 -1.53321974E+00 -2.49636352E+00 -5.15673898E-03 -1.53321974E+00
 -2.49636352E+00  1.56657455E-03  3.04214583E+00 -1.45468161E-01  1.56657455E-03
  3.04214583E+00 -1.45468161E-01  1.56657455E-03  3.04214583E+00 -1.45468161E-01
  1.56657455E-03  3.04214583E+00 -1.45468161E-01  1.56657455E-03  3.04214583E+00
 -1.45468161E-01  1.56657455E-03  3.04214583E+00 -1.45468161E-01  5.21777230E+00
 -1.14730868E-01 -2.24142150E-03  5.21777230E+00 -1.14730868E-01 -2.24142150E-03
  5.21777230E+00 -1.14730868E-01 -2.24142150E-03  5.21777230E+00 -1.14730868E-01
 -2.24142150E-03  5.21777230E+00 -1.14730868E-01 -2.24142150E-03  5.21777230E+00
 -1.14730868E-01 -2.24142150E-03 -5.21739731E+00 -1.13099748E-01  1.81034744E-03
 -5.21739731E+00 -1.13099748E-01  1.81034744E-03 -5.21739731E+00 -1.13099748E-01
  1.81034744E-03 -5.21739731E+00 -1.13099748E-01  1.81034744E-03 -5.21739731E+00
 -1.13099748E-01  1.81034744E-03 -5.21739731E+00 -1.13099748E-01  1.81034744E-03
Constraint Structure                       R   N=          15
  3.21516872E-03 -1.28109548E+00  2.64226276E+00 -5.15673898E-03 -1.53321974E+00
 -2.49636352E+00  1.56657455E-03  3.04214583E+00 -1.45468161E-01  5.21777230E+00
 -1.14730868E-01 -2.24142150E-03 -5.21739731E+00 -1.13099748E-01  1.81034744E-03
Num ILSW                                   I              100
ILSW                                       I   N=         100
           0           0           0           0           2           0
           0           0           0           0         402          -1
           0           0           0           0           0           0
           0           0           1           0           0           0
           1           0           0           0           0           0
           0           0      100000           0          -1           0
           0           0           0           0           0           0
           0           0           0           1           0           0
           0           0           1           0           0           0
           0           0           4          40           0           0
           0           0           5           0           0           0
           0           0           0           0           0           0
           0           0           0           0           0           0
           0           0           0           0           0           0
           0           0           0           0           0           0
           0           0           0           0           0           0
           0           0           0           0
Num RLSW                                   I               40
RLSW                                       R   N=          40
  8.00000000E-01  7.20000000E-01  1.00000000E+00  8.10000000E-01  2.00000000E-01
  0.00000000E+00  0.00000000E+00  1.00000000E+00  0.00000000E+00  0.00000000E+00
  0.00000000E+00  0.00000000E+00  1.00000000E+00  0.00000000E+00  0.00000000E+00
  0.00000000E+00  0.00000000E+00  1.00000000E+00  0.00000000E+00  0.00000000E+00
  0.00000000E+00  0.00000000E+00  1.00000000E+00  0.00000000E+00  0.00000000E+00
  0.00000000E+00  0.00000000E+00  1.00000000E+00  0.00000000E+00  0.00000000E+00
  0.00000000E+00  0.00000000E+00  0.00000000E+00  0.00000000E+00  0.00000000E+00
  0.00000000E+00  0.00000000E+00  0.00000000E+00  1.00000000E+00  1.00000000E+00
MxBond                                     I                4
NBond                                      I   N=           5
           4           4           4           3           3
IBond                                      I   N=          20
           2           3           4           5           1           3
           4           5           1           2           4           5
           1           2           3           0           1           2
           3           0
RBond                                      R   N=          20
  1.00000000E+00  1.00000000E+00  1.00000000E+00  1.00000000E+00  1.00000000E+00
  1.00000000E+00  1.00000000E+00  1.00000000E+00  1.00000000E+00  1.00000000E+00
  1.00000000E+00  1.00000000E+00  1.00000000E+00  1.00000000E+00  1.00000000E+00
  0.00000000E+00  1.00000000E+00  1.00000000E+00  1.00000000E+00  0.00000000E+00
Virial Ratio                               R      2.010060478070360E+00
SCF Energy                                 R     -3.742873030701924E+01
Total Energy                               R     -3.742873030701924E+01
RMS Density                                R      8.249471031857518E-09
External E-field                           R   N=          35
  0.00000000E+00  0.00000000E+00  0.00000000E+00  0.00000000E+00  0.00000000E+00
  0.00000000E+00  0.00000000E+00  0.00000000E+00  0.00000000E+00  0.00000000E+00
  0.00000000E+00  0.00000000E+00  0.00000000E+00  0.00000000E+00  0.00000000E+00
  0.00000000E+00  0.00000000E+00  0.00000000E+00  0.00000000E+00  0.00000000E+00
  0.00000000E+00  0.00000000E+00  0.00000000E+00  0.00000000E+00  0.00000000E+00
  0.00000000E+00  0.00000000E+00  0.00000000E+00  0.00000000E+00  0.00000000E+00
  0.00000000E+00  0.00000000E+00  0.00000000E+00  0.00000000E+00  0.00000000E+00
IOpCl                                      I                0
IROHF                                      I                0
Alpha Orbital Energies                     R   N=         110
 -2.14263817E+00 -2.13865399E+00 -2.13823774E+00 -2.12871405E+00 -2.12869531E+00
 -3.18892347E-01 -2.58844737E-01 -1.93473663E-01 -1.93333968E-01 -1.62346569E-01
 -1.48220920E-01 -1.47215643E-01 -1.33554122E-01 -1.33146719E-01 -1.20043172E-01
 -1.19552085E-01 -8.29463542E-02 -8.28406709E-02 -6.83757961E-02 -6.81441181E-02
 -6.53607186E-02 -6.25903152E-02 -5.53903162E-02 -5.52572168E-02 -4.95819968E-02
 -4.76673353E-02 -4.74760310E-02 -4.67787862E-02 -4.66104825E-02 -4.30758464E-02
 -3.93612118E-02 -3.87122430E-02 -3.37756939E-02 -3.35876904E-02 -3.15355296E-02
 -3.13567401E-02 -2.89543964E-02 -2.78467377E-02 -2.75106424E-02 -2.49254774E-02
 -2.35253244E-02 -2.18956274E-02 -1.47810467E-02 -1.45305308E-02 -7.81644428E-03
 -7.25557643E-03 -3.13128455E-03 -1.69159957E-03  7.74773896E-03  8.41004729E-03
  1.15907552E-02  2.10335764E-02  2.15170512E-02  2.31226294E-02  3.25344500E-02
  3.96184057E-02  4.28935520E-02  4.48368334E-02  4.65329920E-02  4.73824211E-02
  4.80714686E-02  5.36217954E-02  9.09266140E-02  1.05362342E-01  1.07566981E-01
  2.21871992E-01  2.22651851E-01  2.23788744E-01  2.45732629E-01  2.84918214E-01
  2.86737271E-01  2.92447647E-01  3.04820762E-01  3.06523071E-01  3.14224593E-01
  3.15134379E-01  3.18223263E-01  3.20631998E-01  3.21862299E-01  3.26966488E-01
  3.33232016E-01  3.33694055E-01  3.39747367E-01  3.41116542E-01  3.80269624E-01
  3.80675216E-01  3.86097236E-01  3.94314232E-01  4.22055506E-01  4.43269259E-01
  4.77398422E-01  4.79461813E-01  4.91400951E-01  4.96044826E-01  5.21471851E-01
  5.28081488E-01  5.69256820E-01  5.96288865E-01  6.01012027E-01  6.20629469E-01
  6.89601625E-01  6.95996231E-01  6.97503985E-01  7.03684239E-01  7.33950822E-01
  3.41298296E+00  3.55636390E+00  3.64842467E+00  3.69752084E+00  3.70637089E+00
Alpha MO coefficients                      R   N=       12100
  2.71452322E-02  1.91193818E-02  7.81418655E-07 -1.51049729E-03  1.13453668E-03
 -1.02246460E-02  3.31704707E-06 -8.27472020E-03  3.67921900E-03  2.40519521E-02
 -4.41116498E-06  1.15818934E-02 -4.93993913E-03  1.13101271E-01  3.32139145E-05
  1.82227310E-02 -1.43621093E-02  2.57416047E-04 -9.74022802E-07  1.47639611E-03
  1.54946044E-03  1.71955228E-06  2.56256359E-02  1.80783507E-02 -3.48252674E-06
 -1.61004283E-03 -9.74467135E-04 -1.03530465E-02 -1.27813272E-05 -8.61841356E-03
 -2.93108372E-03  2.42082143E-02  1.79213192E-05  1.20279523E-02  3.86112053E-03
  1.14451767E-01 -3.10122786E-05  1.96172203E-02  1.27379104E-02  4.80686448E-04
 -2.76175666E-06 -1.25663384E-03  1.68415212E-03 -6.68737888E-06  6.16136813E-01
  4.22229550E-01 -1.90597772E-06  4.89728462E-03 -2.34924637E-04  4.59304825E-02
 -7.12849105E-07 -2.65069979E-02  1.27112754E-03 -7.42573086E-02 -3.93374506E-07
  3.34160583E-02 -1.60748511E-03 -2.36051855E-01  1.40165709E-06  3.99008776E-02
 -1.90630261E-03 -1.79055516E-03  2.24850342E-06 -2.66492170E-04 -2.43485945E-03
  1.24823850E-06  6.32055368E-04  1.02636599E-03  1.93372025E-04 -1.90287278E-04
  8.45344290E-06 -3.59056730E-03  4.29853925E-03 -3.25978143E-03  1.42017963E-04
  8.98212868E-03 -5.40012820E-03  4.45407919E-03 -1.98006375E-04  4.58102894E-03
 -6.19084634E-04  4.48654982E-03 -2.39267699E-04  1.03449512E-03 -6.42402091E-05
  4.34076438E-05 -8.50517425E-04  1.49840147E-03  6.28168404E-04  1.02354341E-03
 -1.91695518E-04 -1.89631938E-04  8.51932164E-06 -3.57791073E-03 -4.29363448E-03
 -3.25212437E-03  1.43262785E-04  8.95103414E-03  5.39222786E-03  4.44188969E-03
 -1.97421297E-04  4.43595147E-03  6.00731315E-04  4.48058978E-03 -1.87581935E-04
  1.03415830E-03  6.63186166E-05  4.24133089E-05 -8.50602399E-04 -1.49592622E-03
  5.51307519E-01  3.77907712E-01 -1.03393488E-06 -1.69416729E-03  4.53835985E-03
  3.86669157E-02  7.69170593E-06  1.24142880E-02 -1.81372329E-02 -6.03133240E-02
 -1.54788031E-05 -1.59997711E-02  2.22277933E-02 -1.77870881E-01 -4.89946481E-06
 -1.75775033E-02  2.38014654E-02  7.78082266E-04 -1.82996785E-06 -2.38063547E-03
 -3.87445573E-05 -1.60692400E-07  2.74818902E-01  1.88700780E-01 -1.99282070E-06
 -1.05355084E-03 -3.28667526E-03  1.15069254E-02 -1.53480226E-05  7.77498778E-03
  1.75215950E-03 -1.32696079E-02  2.25390218E-05 -1.03336772E-02 -1.25443499E-03
 -6.79332861E-03 -2.01285103E-05 -7.83688346E-03  5.56956100E-03 -1.34776744E-03
 -7.43946144E-06  1.31804702E-03 -1.03384816E-04  1.29463593E-06 -3.64297437E-02
 -2.42747718E-02  8.12461446E-07  1.64421104E-03 -4.63136919E-04 -1.94336447E-02
  2.50135355E-06  1.24246331E-02 -3.36549189E-03  4.20676498E-02 -4.20035767E-06
 -1.69555870E-02  4.69182431E-03  1.74373682E-01  1.22570608E-05 -3.15845033E-02
  6.44582350E-03  7.99632585E-05 -2.69767449E-06  9.08315042E-04  2.05821441E-03
 -1.39572975E-06  1.80054411E-03  1.93582824E-03  4.31846697E-04  1.52192950E-04
 -1.03949394E-04 -5.08262551E-03  5.50355455E-03  2.21767064E-03 -1.49633658E-03
  1.19226574E-02 -6.77794657E-03 -3.03916276E-03  1.99891648E-03  5.28046791E-03
 -5.47265639E-04 -3.53755369E-03  2.06935525E-03  5.26862060E-04  6.82230477E-04
  1.03016715E-04 -1.68602804E-03 -9.99244902E-04  1.79841100E-03  1.93442002E-03
 -4.31614410E-04  1.52263647E-04 -1.01457302E-04 -5.07872580E-03 -5.50214311E-03
  2.21710648E-03 -1.47352853E-03  1.19076890E-02  6.77271655E-03 -3.03671050E-03
  1.96260179E-03  5.16513783E-03  5.30609729E-04 -3.51176858E-03  2.06188662E-03
  5.26618198E-04 -6.75130970E-04  1.02057477E-04 -1.68617414E-03  9.99905614E-04
 -2.76256309E-01 -1.88831055E-01  5.42361689E-06  1.04430817E-03 -4.16135493E-04
 -3.24559091E-02  1.22425722E-05 -3.95744387E-03  2.00298294E-02  5.84627692E-02
 -1.32666521E-05  4.41874453E-03 -2.58941754E-02  2.26034285E-01  1.15092209E-05
  9.49948947E-03 -3.97134068E-02 -2.87331136E-03 -8.44291728E-06  6.27262218E-04
  1.02259673E-04 -1.58844095E-06  5.52093194E-01  3.78017002E-01  5.76267333E-06
 -2.15346090E-03 -2.86014252E-03  4.92120921E-02  3.02346269E-07  1.32068614E-02
  2.57416907E-02 -8.29695147E-02  6.89445256E-06 -1.63925995E-02 -3.25885377E-02
 -2.87558655E-01  2.18464041E-05 -2.25702736E-02 -4.40184898E-02  2.39014085E-03
  4.62647326E-06  2.34885850E-03 -2.93448746E-04  3.04128216E-07 -1.10293951E-02
 -7.32814939E-03  3.61206873E-06  6.21292407E-04  1.11514965E-03 -6.41718963E-03
  1.29425756E-05  4.55521977E-03  8.04826709E-03  1.39027796E-02 -1.63421307E-05
 -6.22597814E-03 -1.12765049E-02  5.80934543E-02 -5.28821615E-06 -1.13181383E-02
 -1.41509091E-02  2.47937125E-04 -3.01546049E-06 -2.33753090E-03  8.12997130E-04
 -5.76357576E-06  6.43058540E-04  6.75506421E-04  1.47687085E-04  6.64045535E-05
  2.84651500E-04 -1.70041285E-03  1.84640771E-03  9.57000453E-04  4.06108586E-03
  3.95763153E-03 -2.26196072E-03 -1.29585344E-03 -5.39283186E-03  1.37301715E-03
 -1.21149017E-04 -1.46471313E-03 -5.61264025E-03  2.25519410E-04 -1.85768849E-03
 -4.20990259E-04 -5.46924956E-04 -4.34286606E-04  6.79637600E-04  7.01980868E-04
 -1.57369190E-04  6.78538023E-05  2.86474726E-04 -1.76902001E-03 -1.87526570E-03
  9.71869721E-04  4.07530769E-03  4.13029286E-03  2.31244641E-03 -1.32041374E-03
 -5.41578853E-03  2.09524697E-03  2.21554133E-04 -1.49520033E-03 -5.63163304E-03
  2.25585131E-04  1.86155152E-03 -4.21568713E-04 -5.47981469E-04  4.37774282E-04
 -6.11515116E-04 -2.05881441E-04 -1.67814795E-04 -3.89377759E-05  9.09772832E-05
 -1.23117939E-03 -9.31282431E-03 -2.03824970E-04  5.53945916E-04  3.70107932E-03
  2.30639196E-02  1.38230399E-05 -4.03214756E-04 -3.64259455E-03  1.81007590E-02
 -7.65895580E-05 -7.76337851E-05  1.96414411E-04  1.55143269E-03  6.39006801E-05
 -4.81205616E-04 -6.48877955E-04 -6.05987882E-04 -2.02537550E-04 -1.75537278E-04
 -4.68750926E-05 -8.50672080E-05 -1.20071140E-03 -9.37741809E-03 -2.52489211E-04
 -5.11191948E-04  3.52058873E-03  2.32315797E-02  3.11353108E-05  3.27611920E-04
 -4.25429688E-03  1.81022377E-02 -1.11758155E-04 -1.61840364E-05  2.10337804E-04
 -1.47477166E-03 -7.51781344E-05 -4.74240152E-04 -8.02359435E-04 -2.88578831E-04
  2.52710570E-05 -1.57538798E-05  8.50222966E-05 -4.18772119E-06 -1.13771346E-03
 -8.28370596E-03  6.98017699E-04 -2.89430708E-05  4.07488915E-03  2.06169093E-02
 -7.86896697E-04  2.21698126E-05  8.64682688E-04  1.82207766E-02 -7.52700199E-04
  1.82134355E-05  3.34519682E-04 -7.50980033E-05  1.14288953E-05 -3.32011818E-04
  1.67221576E-03  5.35008784E-01  3.68216363E-01  5.33271182E-03 -2.21335085E-04
 -5.16060631E-06  3.29589533E-02 -1.68738272E-02  2.40512960E-04  1.86010621E-05
 -7.31216057E-02  3.22094004E-02 -5.11333332E-04 -3.01110530E-05 -1.03960347E-01
  1.76887667E-02 -1.16179978E-03 -1.62446154E-05 -1.04163594E-03 -5.41272596E-06
  5.58994423E-06  1.90574792E-03  1.12919482E-05 -3.06678789E-01 -2.10895280E-01
  3.08332676E-03  1.33622769E-04 -2.48894911E-06 -2.12840928E-02 -1.12391506E-02
 -1.49090322E-04  1.49507648E-05  5.73402237E-02  2.47340584E-02  3.89720553E-04
 -3.57202155E-05  1.11313397E-01  2.03526613E-02  1.00452269E-03 -1.74489811E-05
  6.36651189E-04  3.79550726E-06 -4.59415450E-06 -1.15667582E-03  3.03553628E-06
 -2.20227516E-03 -7.22802124E-04  4.30487844E-05 -1.41583622E-04  3.32901460E-04
 -4.48921822E-03  2.52263386E-03 -7.51494631E-04  2.02238770E-03  1.34154075E-02
 -6.25327769E-03  4.26849223E-05 -1.40915584E-03 -1.39209662E-02 -4.92283186E-03
 -3.04683762E-04 -1.78712892E-04  7.21477397E-04 -4.19051764E-04  2.35351289E-04
 -1.77120141E-03  1.76250624E-04 -2.32270040E-03 -8.07676709E-04  5.26507651E-05
 -1.76259540E-04 -3.19637816E-04 -4.52656924E-03  2.55457347E-03 -9.44767255E-04
 -1.91533888E-03  1.33676597E-02 -6.31412670E-03  1.58116498E-04  1.30817045E-03
 -1.49067163E-02 -4.91213162E-03 -3.50152206E-04  7.01913052E-05  7.78468635E-04
  4.03033477E-04 -2.77353648E-04 -1.75484003E-03  2.19176535E-04 -1.05117911E-03
  1.02254319E-04  3.35027870E-06  3.12536161E-04 -1.41116613E-05 -4.18211087E-03
  2.24640983E-03  2.56701455E-03 -1.13552536E-04  1.49822607E-02 -5.59262214E-03
 -2.88654526E-03  1.10426741E-04  3.18447111E-03 -4.95189273E-03 -2.75890070E-03
  1.15316487E-04  1.23226936E-03  2.14591812E-05  4.05316753E-05 -1.22214155E-03
 -4.52996316E-04  3.06601362E-01  2.11361266E-01  3.00302403E-03 -1.09053933E-04
 -3.11995834E-06  1.41712174E-02 -6.57931097E-03  9.49181375E-05  8.19967477E-06
 -1.14362300E-02  6.06829747E-03 -6.01119296E-05 -7.79587264E-06  4.26477439E-02
 -1.00507630E-02  3.04529478E-05  1.15606357E-05 -5.18594682E-04 -2.54132426E-06
  4.06747074E-06  9.67065656E-04  1.87550548E-05  5.34963836E-01  3.68482801E-01
 -5.28628529E-03 -2.02008784E-04  4.27361592E-06  2.88950097E-02  1.42129781E-02
  1.89841878E-04 -1.85883555E-05 -4.68420939E-02 -2.15246638E-02 -2.91576893E-04
  2.62603838E-05 -1.58270452E-02 -2.83178188E-04 -5.63404076E-04 -5.35982470E-06
 -9.73678748E-04 -7.08684590E-06  9.90110273E-06  1.79926171E-03 -2.64355495E-05
 -6.85659086E-02 -9.36593069E-02 -4.21243348E-05  2.51055846E-02 -5.00714156E-02
  2.56284180E-01 -4.75781318E-05  3.12801144E-02 -6.25856728E-02 -4.66917317E-03
 -1.82636495E-05 -1.20484421E-02  2.24020093E-02  7.54063361E-02  4.30206922E-06
  4.81837649E-03 -1.06243960E-02  1.27753197E-03  4.10388069E-06 -5.03521228E-03
  5.22531502E-03 -3.24186705E-06 -6.86287683E-02 -9.37518032E-02  3.72140410E-05
  2.98872515E-02  4.73228513E-02  2.56132880E-01  4.79807294E-05  3.71976708E-02
  5.90438394E-02 -5.47824580E-03  3.70070476E-05 -1.42923300E-02 -2.13372923E-02
  7.61587556E-02 -3.16372277E-05  5.88663694E-03  1.01392275E-02  3.23935578E-04
 -7.58774303E-07  5.65208872E-03  4.74904012E-03  8.37430399E-07 -6.75718664E-02
 -9.21839869E-02 -2.72505468E-05 -5.65428473E-02  2.74873352E-03  2.58214074E-01
 -2.93046260E-05 -7.25309791E-02  3.51614985E-03  8.09618306E-03 -7.04444315E-06
  2.14153424E-02 -1.08242204E-03  6.60792047E-02 -2.66244846E-06 -1.10744395E-02
  5.21451610E-04 -6.98394316E-03 -3.03656079E-08 -6.25102175E-04 -7.00698518E-04
  4.60265139E-06 -4.37433183E-02 -6.03655160E-02 -4.12160802E-02  8.68504700E-04
  3.28135078E-05  1.96159935E-01 -6.93622687E-02  1.16621882E-03  3.27018064E-05
  5.24138407E-02 -1.61699993E-03  5.27780313E-04  1.68589866E-05 -1.14659767E-01
  2.62765362E-02 -4.35433906E-04 -2.65359920E-05 -3.32128778E-03 -7.68113259E-06
  8.57050818E-06  5.91484602E-03 -5.72531502E-05 -4.37618990E-02 -6.03927014E-02
  4.12349260E-02  8.44076148E-04 -3.03138786E-05  1.96230100E-01  6.93878417E-02
  1.14202877E-03 -3.03714788E-05  5.24460199E-02  1.61551185E-03  5.17413902E-04
 -1.31343391E-05 -1.14784262E-01 -2.62938769E-02 -4.14969393E-04  2.80588835E-05
 -3.32207465E-03 -5.82605237E-06  1.30325626E-05  5.91892937E-03  5.19844728E-05
 -8.08443091E-05 -1.15450087E-04  9.47482011E-02  3.79930763E-05 -7.90473691E-05
  3.39897928E-04  1.43648437E-01  5.00846273E-05 -1.14265359E-04 -5.54407417E-05
 -1.38430938E-02 -4.15426816E-06  6.32257172E-05 -1.96159180E-04  4.05432040E-02
 -1.01546301E-05  1.68688162E-05  1.32968554E-05 -1.29476373E-02 -4.53122246E-06
 -1.10607732E-05  6.46697814E-03  1.11096911E-04  1.59401675E-04  9.49469703E-02
 -6.47746373E-05 -1.08500759E-04 -4.41173468E-04  1.43783263E-01 -8.89443176E-05
 -1.46072119E-04  9.01069275E-05 -1.39830289E-02  3.73726318E-05  7.23647364E-05
  2.44155832E-04  4.09212256E-02  1.33694893E-05  1.80718863E-05 -1.56800605E-05
  1.22226525E-02 -8.97461681E-06  1.77287154E-05  7.69608147E-03 -4.24747779E-05
 -6.04193637E-05  9.17120791E-02 -4.57240175E-05  1.83062693E-06  1.89910561E-04
  1.41429586E-01 -7.15518794E-05 -4.34782208E-06 -3.18210574E-06 -1.20554259E-02
  2.45158974E-05  2.89113561E-05 -9.89234005E-05  3.57563745E-02  1.04825149E-05
  4.55909951E-06  9.34325544E-07  7.18599956E-04  2.66622159E-06 -1.05003297E-05
 -1.48291073E-02 -6.76661725E-02 -9.74737425E-02 -4.01309477E-02  4.72529684E-04
  6.50510725E-05  3.58623203E-01 -1.00853285E-01  2.21687348E-03  9.63176898E-05
  1.38711546E-01 -3.33636925E-03  5.27693736E-04 -2.32873834E-06 -1.73468603E-01
  1.68678139E-02 -4.89853303E-04  1.84608118E-05 -3.09906661E-03 -1.06526428E-05
  3.41080747E-05  5.91157074E-03 -5.93717549E-05  6.76645181E-02  9.74731498E-02
 -4.01317929E-02 -4.17521369E-04  7.61654447E-05 -3.58605086E-01 -1.00845277E-01
 -2.13631775E-03  1.08668696E-04 -1.38709919E-01 -3.33191242E-03 -5.25045893E-04
  1.31782565E-05  1.73518214E-01  1.68690540E-02  4.87668103E-04 -2.58771474E-05
  3.09538484E-03  1.79120672E-05 -4.51275692E-05 -5.91098446E-03 -4.79185009E-05
  3.28278831E-02  4.77755319E-02  2.20649599E-05  8.56281135E-02  2.41105181E-02
 -1.95814363E-01  5.32932702E-05  1.21901766E-01  7.52756540E-02 -3.91364065E-01
  5.11238968E-05 -5.79902968E-02  7.30374084E-02 -3.63307440E-01 -1.63769324E-04
 -5.50586178E-02  4.57249432E-02 -2.68749556E-03  1.49377288E-06 -6.78283672E-03
 -7.60700150E-03 -2.71150527E-06  3.43518758E-02  4.99999231E-02 -2.31011184E-05
  8.21973980E-02 -3.11445404E-02 -2.04685075E-01 -7.29965817E-05  1.11979817E-01
 -8.63437853E-02 -4.10404946E-01 -2.81561910E-05 -6.69044153E-02 -7.10453268E-02
 -3.82072700E-01  7.62596428E-05 -6.06170934E-02 -4.31928920E-02 -3.46789764E-03
  2.98482914E-06  5.47152375E-03 -8.36832417E-03 -1.08034232E-05 -7.21699389E-02
 -1.04916999E-01 -4.20802036E-05  2.76834815E-02 -1.69897147E-04  4.31307652E-01
 -1.03425563E-04 -4.08587878E-02  3.90162844E-03  8.15781517E-01 -1.67747684E-05
 -1.88487256E-01  8.77206470E-03  7.11502443E-01 -5.27925238E-06 -1.30514070E-01
  5.88250415E-03 -2.01157815E-03  8.23129711E-06  1.66517065E-04  9.51718907E-03
  5.07760947E-06  3.62116565E-03  5.31524611E-03  1.01053732E-03  6.36558445E-02
 -2.35746790E-03 -1.96974682E-02  4.54698898E-03  1.35826012E-01 -5.03786483E-03
 -1.11542257E-02  1.23775392E-03 -4.53746934E-03  1.87919777E-04  1.60493407E-02