b3lyp/3-21g opted                                                       
SP        RB3LYP                                                      3-21G               
Number of atoms                            I               24
Info1-9                                    I   N=           9
          34          34           0           0           0         110
           1          18        -502
Charge                                     I                0
Multiplicity                               I                1
Number of electrons                        I               94
Number of alpha electrons                  I               47
Number of beta electrons                   I               47
Number of basis functions                  I              146
Number of independent functions            I              146
Number of point charges in /Mol/           I                0
Number of translation vectors              I                0
Atomic numbers                             I   N=          24
           6           6           6           6           6           6
           6           6           6           6           6           1
           6           6           6           1           1           1
           1           1           1           1           1           1
Nuclear charges                            R   N=          24
  6.00000000E+00  6.00000000E+00  6.00000000E+00  6.00000000E+00  6.00000000E+00
  6.00000000E+00  6.00000000E+00  6.00000000E+00  6.00000000E+00  6.00000000E+00
  6.00000000E+00  1.00000000E+00  6.00000000E+00  6.00000000E+00  6.00000000E+00
  1.00000000E+00  1.00000000E+00  1.00000000E+00  1.00000000E+00  1.00000000E+00
  1.00000000E+00  1.00000000E+00  1.00000000E+00  1.00000000E+00
Current cartesian coordinates              R   N=          72
  1.20158936E-15  6.72859099E+00 -5.61681409E-01  1.08740194E-15  5.36554665E+00
  1.66256782E+00  5.94574887E-16  2.69024058E+00  1.63974371E+00  2.09303545E-16
  1.37923929E+00 -7.19418739E-01  3.38842486E-16  2.83316057E+00 -2.96558124E+00
  8.23042192E-16  5.44527987E+00 -2.89409668E+00  4.78451540E-16  1.28362482E+00
  3.96309018E+00 -4.66306536E-16 -1.37923929E+00 -7.19418739E-01 -7.23219396E-16
 -2.69024058E+00  1.63974371E+00 -1.50322505E-16 -1.28362482E+00  3.96309018E+00
 -1.54087107E-15 -5.36554665E+00  1.66256782E+00 -9.50011589E-16 -6.32921816E+00
  3.47227539E+00 -2.09436075E-15 -6.72859099E+00 -5.61681409E-01 -1.84428754E-15
 -5.44527987E+00 -2.89409668E+00 -1.04896009E-15 -2.83316057E+00 -2.96558124E+00
  7.78761926E-16  2.33109813E+00  5.72527303E+00  1.58013179E-15  8.77590139E+00
 -5.21341425E-01  2.15030872E-15  6.32921816E+00  3.47227539E+00  5.50310957E-17
  1.89357739E+00 -4.78197655E+00  9.12116934E-16  6.51282206E+00 -4.64197430E+00
 -3.63109106E-16 -2.33109813E+00  5.72527303E+00 -2.71867805E-15 -8.77590139E+00
 -5.21341425E-01 -2.27814038E-15 -6.51282206E+00 -4.64197430E+00 -8.72523668E-16
 -1.89357739E+00 -4.78197655E+00
Force Field                                I                0
Int Atom Types                             I   N=          24
           0           0           0           0           0           0
           0           0           0           0           0           0
           0           0           0           0           0           0
           0           0           0           0           0           0
MM charges                                 R   N=          24
  0.00000000E+00  0.00000000E+00  0.00000000E+00  0.00000000E+00  0.00000000E+00
  0.00000000E+00  0.00000000E+00  0.00000000E+00  0.00000000E+00  0.00000000E+00
  0.00000000E+00  0.00000000E+00  0.00000000E+00  0.00000000E+00  0.00000000E+00
  0.00000000E+00  0.00000000E+00  0.00000000E+00  0.00000000E+00  0.00000000E+00
  0.00000000E+00  0.00000000E+00  0.00000000E+00  0.00000000E+00
Integer atomic weights                     I   N=          24
          12          12          12          12          12          12
          12          12          12          12          12           1
          12          12          12           1           1           1
           1           1           1           1           1           1
Real atomic weights                        R   N=          24
  1.20000000E+01  1.20000000E+01  1.20000000E+01  1.20000000E+01  1.20000000E+01
  1.20000000E+01  1.20000000E+01  1.20000000E+01  1.20000000E+01  1.20000000E+01
  1.20000000E+01  1.00782504E+00  1.20000000E+01  1.20000000E+01  1.20000000E+01
  1.00782504E+00  1.00782504E+00  1.00782504E+00  1.00782504E+00  1.00782504E+00
  1.00782504E+00  1.00782504E+00  1.00782504E+00  1.00782504E+00
Atom fragment info                         I   N=          24
           0           0           0           0           0           0
           0           0           0           0           0           0
           0           0           0           0           0           0
           0           0           0           0           0           0
Atom residue num                           I   N=          24
           0           0           0           0           0           0
           0           0           0           0           0           0
           0           0           0           0           0           0
           0           0           0           0           0           0
Nuclear spins                              I   N=          24
           0           0           0           0           0           0
           0           0           0           0           0           1
           0           0           0           1           1           1
           1           1           1           1           1           1
Nuclear ZEff                               R   N=          24
 -3.60000000E+00 -3.60000000E+00 -3.60000000E+00 -3.60000000E+00 -3.60000000E+00
 -3.60000000E+00 -3.60000000E+00 -3.60000000E+00 -3.60000000E+00 -3.60000000E+00
 -3.60000000E+00 -1.00000000E+00 -3.60000000E+00 -3.60000000E+00 -3.60000000E+00
 -1.00000000E+00 -1.00000000E+00 -1.00000000E+00 -1.00000000E+00 -1.00000000E+00
 -1.00000000E+00 -1.00000000E+00 -1.00000000E+00 -1.00000000E+00
Nuclear ZNuc                               R   N=          24
  6.00000000E+00  6.00000000E+00  6.00000000E+00  6.00000000E+00  6.00000000E+00
  6.00000000E+00  6.00000000E+00  6.00000000E+00  6.00000000E+00  6.00000000E+00
  6.00000000E+00  1.00000000E+00  6.00000000E+00  6.00000000E+00  6.00000000E+00
  1.00000000E+00  1.00000000E+00  1.00000000E+00  1.00000000E+00  1.00000000E+00
  1.00000000E+00  1.00000000E+00  1.00000000E+00  1.00000000E+00
Nuclear QMom                               R   N=          24
  0.00000000E+00  0.00000000E+00  0.00000000E+00  0.00000000E+00  0.00000000E+00
  0.00000000E+00  0.00000000E+00  0.00000000E+00  0.00000000E+00  0.00000000E+00
  0.00000000E+00  0.00000000E+00  0.00000000E+00  0.00000000E+00  0.00000000E+00
  0.00000000E+00  0.00000000E+00  0.00000000E+00  0.00000000E+00  0.00000000E+00
  0.00000000E+00  0.00000000E+00  0.00000000E+00  0.00000000E+00
Nuclear GFac                               R   N=          24
  0.00000000E+00  0.00000000E+00  0.00000000E+00  0.00000000E+00  0.00000000E+00
  0.00000000E+00  0.00000000E+00  0.00000000E+00  0.00000000E+00  0.00000000E+00
  0.00000000E+00  2.79284600E+00  0.00000000E+00  0.00000000E+00  0.00000000E+00
  2.79284600E+00  2.79284600E+00  2.79284600E+00  2.79284600E+00  2.79284600E+00
  2.79284600E+00  2.79284600E+00  2.79284600E+00  2.79284600E+00
MicOpt                                     I   N=          24
          -1          -1          -1          -1          -1          -1
          -1          -1          -1          -1          -1          -1
          -1          -1          -1          -1          -1          -1
          -1          -1          -1          -1          -1          -1
Number of contracted shells                I               62
Number of primitive shells                 I              114
Pure/Cartesian d shells                    I                1
Pure/Cartesian f shells                    I                0
Highest angular momentum                   I                1
Largest degree of contraction              I                3
Shell types                                I   N=          62
           0          -1          -1           0          -1          -1
           0          -1          -1           0          -1          -1
           0          -1          -1           0          -1          -1
           0          -1          -1           0          -1          -1
           0          -1          -1           0          -1          -1
           0          -1          -1           0           0           0
          -1          -1           0          -1          -1           0
          -1          -1           0           0           0           0
           0           0           0           0           0           0
           0           0           0           0           0           0
           0           0
Number of primitives per shell             I   N=          62
           3           2           1           3           2           1
           3           2           1           3           2           1
           3           2           1           3           2           1
           3           2           1           3           2           1
           3           2           1           3           2           1
           3           2           1           2           1           3
           2           1           3           2           1           3
           2           1           2           1           2           1
           2           1           2           1           2           1
           2           1           2           1           2           1
           2           1
Shell to atom map                          I   N=          62
           1           1           1           2           2           2
           3           3           3           4           4           4
           5           5           5           6           6           6
           7           7           7           8           8           8
           9           9           9          10          10          10
          11          11          11          12          12          13
          13          13          14          14          14          15
          15          15          16          16          17          17
          18          18          19          19          20          20
          21          21          22          22          23          23
          24          24
Primitive exponents                        R   N=         114
  1.72256000E+02  2.59109000E+01  5.53335000E+00  3.66498000E+00  7.70545000E-01
  1.95857000E-01  1.72256000E+02  2.59109000E+01  5.53335000E+00  3.66498000E+00
  7.70545000E-01  1.95857000E-01  1.72256000E+02  2.59109000E+01  5.53335000E+00
  3.66498000E+00  7.70545000E-01  1.95857000E-01  1.72256000E+02  2.59109000E+01
  5.53335000E+00  3.66498000E+00  7.70545000E-01  1.95857000E-01  1.72256000E+02
  2.59109000E+01  5.53335000E+00  3.66498000E+00  7.70545000E-01  1.95857000E-01
  1.72256000E+02  2.59109000E+01  5.53335000E+00  3.66498000E+00  7.70545000E-01
  1.95857000E-01  1.72256000E+02  2.59109000E+01  5.53335000E+00  3.66498000E+00
  7.70545000E-01  1.95857000E-01  1.72256000E+02  2.59109000E+01  5.53335000E+00
  3.66498000E+00  7.70545000E-01  1.95857000E-01  1.72256000E+02  2.59109000E+01
  5.53335000E+00  3.66498000E+00  7.70545000E-01  1.95857000E-01  1.72256000E+02
  2.59109000E+01  5.53335000E+00  3.66498000E+00  7.70545000E-01  1.95857000E-01
  1.72256000E+02  2.59109000E+01  5.53335000E+00  3.66498000E+00  7.70545000E-01
  1.95857000E-01  5.44717800E+00  8.24547240E-01  1.83191580E-01  1.72256000E+02
  2.59109000E+01  5.53335000E+00  3.66498000E+00  7.70545000E-01  1.95857000E-01
  1.72256000E+02  2.59109000E+01  5.53335000E+00  3.66498000E+00  7.70545000E-01
  1.95857000E-01  1.72256000E+02  2.59109000E+01  5.53335000E+00  3.66498000E+00
  7.70545000E-01  1.95857000E-01  5.44717800E+00  8.24547240E-01  1.83191580E-01
  5.44717800E+00  8.24547240E-01  1.83191580E-01  5.44717800E+00  8.24547240E-01
  1.83191580E-01  5.44717800E+00  8.24547240E-01  1.83191580E-01  5.44717800E+00
  8.24547240E-01  1.83191580E-01  5.44717800E+00  8.24547240E-01  1.83191580E-01
  5.44717800E+00  8.24547240E-01  1.83191580E-01  5.44717800E+00  8.24547240E-01
  1.83191580E-01  5.44717800E+00  8.24547240E-01  1.83191580E-01
Contraction coefficients                   R   N=         114
  6.17669074E-02  3.58794043E-01  7.00713084E-01 -3.95895162E-01  1.21583436E+00
  1.00000000E+00  6.17669074E-02  3.58794043E-01  7.00713084E-01 -3.95895162E-01
  1.21583436E+00  1.00000000E+00  6.17669074E-02  3.58794043E-01  7.00713084E-01
 -3.95895162E-01  1.21583436E+00  1.00000000E+00  6.17669074E-02  3.58794043E-01
  7.00713084E-01 -3.95895162E-01  1.21583436E+00  1.00000000E+00  6.17669074E-02
  3.58794043E-01  7.00713084E-01 -3.95895162E-01  1.21583436E+00  1.00000000E+00
  6.17669074E-02  3.58794043E-01  7.00713084E-01 -3.95895162E-01  1.21583436E+00
  1.00000000E+00  6.17669074E-02  3.58794043E-01  7.00713084E-01 -3.95895162E-01
  1.21583436E+00  1.00000000E+00  6.17669074E-02  3.58794043E-01  7.00713084E-01
 -3.95895162E-01  1.21583436E+00  1.00000000E+00  6.17669074E-02  3.58794043E-01
  7.00713084E-01 -3.95895162E-01  1.21583436E+00  1.00000000E+00  6.17669074E-02
  3.58794043E-01  7.00713084E-01 -3.95895162E-01  1.21583436E+00  1.00000000E+00
  6.17669074E-02  3.58794043E-01  7.00713084E-01 -3.95895162E-01  1.21583436E+00
  1.00000000E+00  1.56284979E-01  9.04690877E-01  1.00000000E+00  6.17669074E-02
  3.58794043E-01  7.00713084E-01 -3.95895162E-01  1.21583436E+00  1.00000000E+00
  6.17669074E-02  3.58794043E-01  7.00713084E-01 -3.95895162E-01  1.21583436E+00
  1.00000000E+00  6.17669074E-02  3.58794043E-01  7.00713084E-01 -3.95895162E-01
  1.21583436E+00  1.00000000E+00  1.56284979E-01  9.04690877E-01  1.00000000E+00
  1.56284979E-01  9.04690877E-01  1.00000000E+00  1.56284979E-01  9.04690877E-01
  1.00000000E+00  1.56284979E-01  9.04690877E-01  1.00000000E+00  1.56284979E-01
  9.04690877E-01  1.00000000E+00  1.56284979E-01  9.04690877E-01  1.00000000E+00
  1.56284979E-01  9.04690877E-01  1.00000000E+00  1.56284979E-01  9.04690877E-01
  1.00000000E+00  1.56284979E-01  9.04690877E-01  1.00000000E+00
P(S=P) Contraction coefficients            R   N=         114
  0.00000000E+00  0.00000000E+00  0.00000000E+00  2.36459947E-01  8.60618806E-01
  1.00000000E+00  0.00000000E+00  0.00000000E+00  0.00000000E+00  2.36459947E-01
  8.60618806E-01  1.00000000E+00  0.00000000E+00  0.00000000E+00  0.00000000E+00
  2.36459947E-01  8.60618806E-01  1.00000000E+00  0.00000000E+00  0.00000000E+00
  0.00000000E+00  2.36459947E-01  8.60618806E-01  1.00000000E+00  0.00000000E+00
  0.00000000E+00  0.00000000E+00  2.36459947E-01  8.60618806E-01  1.00000000E+00
  0.00000000E+00  0.00000000E+00  0.00000000E+00  2.36459947E-01  8.60618806E-01
  1.00000000E+00  0.00000000E+00  0.00000000E+00  0.00000000E+00  2.36459947E-01
  8.60618806E-01  1.00000000E+00  0.00000000E+00  0.00000000E+00  0.00000000E+00
  2.36459947E-01  8.60618806E-01  1.00000000E+00  0.00000000E+00  0.00000000E+00
  0.00000000E+00  2.36459947E-01  8.60618806E-01  1.00000000E+00  0.00000000E+00
  0.00000000E+00  0.00000000E+00  2.36459947E-01  8.60618806E-01  1.00000000E+00
  0.00000000E+00  0.00000000E+00  0.00000000E+00  2.36459947E-01  8.60618806E-01
  1.00000000E+00  0.00000000E+00  0.00000000E+00  0.00000000E+00  0.00000000E+00
  0.00000000E+00  0.00000000E+00  2.36459947E-01  8.60618806E-01  1.00000000E+00
  0.00000000E+00  0.00000000E+00  0.00000000E+00  2.36459947E-01  8.60618806E-01
  1.00000000E+00  0.00000000E+00  0.00000000E+00  0.00000000E+00  2.36459947E-01
  8.60618806E-01  1.00000000E+00  0.00000000E+00  0.00000000E+00  0.00000000E+00
  0.00000000E+00  0.00000000E+00  0.00000000E+00  0.00000000E+00  0.00000000E+00
  0.00000000E+00  0.00000000E+00  0.00000000E+00  0.00000000E+00  0.00000000E+00
  0.00000000E+00  0.00000000E+00  0.00000000E+00  0.00000000E+00  0.00000000E+00
  0.00000000E+00  0.00000000E+00  0.00000000E+00  0.00000000E+00  0.00000000E+00
  0.00000000E+00  0.00000000E+00  0.00000000E+00  0.00000000E+00
Coordinates of each shell                  R   N=         186
  0.00000000E+00  6.72859099E+00 -5.61681369E-01  0.00000000E+00  6.72859099E+00
 -5.61681369E-01  0.00000000E+00  6.72859099E+00 -5.61681369E-01  0.00000000E+00
  5.36554665E+00  1.66256786E+00  0.00000000E+00  5.36554665E+00  1.66256786E+00
  0.00000000E+00  5.36554665E+00  1.66256786E+00  0.00000000E+00  2.69024058E+00
  1.63974375E+00  0.00000000E+00  2.69024058E+00  1.63974375E+00  0.00000000E+00
  2.69024058E+00  1.63974375E+00  0.00000000E+00  1.37923929E+00 -7.19418699E-01
  0.00000000E+00  1.37923929E+00 -7.19418699E-01  0.00000000E+00  1.37923929E+00
 -7.19418699E-01  0.00000000E+00  2.83316057E+00 -2.96558120E+00  0.00000000E+00
  2.83316057E+00 -2.96558120E+00  0.00000000E+00  2.83316057E+00 -2.96558120E+00
  0.00000000E+00  5.44527987E+00 -2.89409664E+00  0.00000000E+00  5.44527987E+00
 -2.89409664E+00  0.00000000E+00  5.44527987E+00 -2.89409664E+00  0.00000000E+00
  1.28362482E+00  3.96309022E+00  0.00000000E+00  1.28362482E+00  3.96309022E+00
  0.00000000E+00  1.28362482E+00  3.96309022E+00 -1.68902520E-16 -1.37923929E+00
 -7.19418699E-01 -1.68902520E-16 -1.37923929E+00 -7.19418699E-01 -1.68902520E-16
 -1.37923929E+00 -7.19418699E-01 -3.29448571E-16 -2.69024058E+00  1.63974375E+00
 -3.29448571E-16 -2.69024058E+00  1.63974375E+00 -3.29448571E-16 -2.69024058E+00
  1.63974375E+00 -1.57193511E-16 -1.28362482E+00  3.96309022E+00 -1.57193511E-16
 -1.28362482E+00  3.96309022E+00 -1.57193511E-16 -1.28362482E+00  3.96309022E+00
 -6.57068252E-16 -5.36554665E+00  1.66256786E+00 -6.57068252E-16 -5.36554665E+00
  1.66256786E+00 -6.57068252E-16 -5.36554665E+00  1.66256786E+00  0.00000000E+00
 -6.32921816E+00  3.47227543E+00  0.00000000E+00 -6.32921816E+00  3.47227543E+00
 -8.23987528E-16 -6.72859099E+00 -5.61681369E-01 -8.23987528E-16 -6.72859099E+00
 -5.61681369E-01 -8.23987528E-16 -6.72859099E+00 -5.61681369E-01 -6.66832432E-16
 -5.44527987E+00 -2.89409664E+00 -6.66832432E-16 -5.44527987E+00 -2.89409664E+00
 -6.66832432E-16 -5.44527987E+00 -2.89409664E+00 -3.46950643E-16 -2.83316057E+00
 -2.96558120E+00 -3.46950643E-16 -2.83316057E+00 -2.96558120E+00 -3.46950643E-16
 -2.83316057E+00 -2.96558120E+00  0.00000000E+00  2.33109813E+00  5.72527307E+00
  0.00000000E+00  2.33109813E+00  5.72527307E+00  0.00000000E+00  8.77590139E+00
 -5.21341385E-01  0.00000000E+00  8.77590139E+00 -5.21341385E-01  7.75080078E-16
  6.32921816E+00  3.47227543E+00  7.75080078E-16  6.32921816E+00  3.47227543E+00
  0.00000000E+00  1.89357739E+00 -4.78197651E+00  0.00000000E+00  1.89357739E+00
 -4.78197651E+00  0.00000000E+00  6.51282206E+00 -4.64197426E+00  0.00000000E+00
  6.51282206E+00 -4.64197426E+00 -2.85467758E-16 -2.33109813E+00  5.72527307E+00
 -2.85467758E-16 -2.33109813E+00  5.72527307E+00 -1.07470246E-15 -8.77590139E+00
 -5.21341385E-01 -1.07470246E-15 -8.77590139E+00 -5.21341385E-01 -7.97564328E-16
 -6.51282206E+00 -4.64197426E+00 -7.97564328E-16 -6.51282206E+00 -4.64197426E+00
 -2.31888691E-16 -1.89357739E+00 -4.78197651E+00 -2.31888691E-16 -1.89357739E+00
 -4.78197651E+00
Constraint Structure                       R   N=          72
  0.00000000E+00  6.72859099E+00 -5.61681369E-01  0.00000000E+00  5.36554665E+00
  1.66256786E+00  0.00000000E+00  2.69024058E+00  1.63974375E+00  0.00000000E+00
  1.37923929E+00 -7.19418699E-01  0.00000000E+00  2.83316057E+00 -2.96558120E+00
  0.00000000E+00  5.44527987E+00 -2.89409664E+00  0.00000000E+00  1.28362482E+00
  3.96309022E+00 -1.68902520E-16 -1.37923929E+00 -7.19418699E-01 -3.29448571E-16
 -2.69024058E+00  1.63974375E+00 -1.57193511E-16 -1.28362482E+00  3.96309022E+00
 -6.57068252E-16 -5.36554665E+00  1.66256786E+00  0.00000000E+00 -6.32921816E+00
  3.47227543E+00 -8.23987528E-16 -6.72859099E+00 -5.61681369E-01 -6.66832432E-16
 -5.44527987E+00 -2.89409664E+00 -3.46950643E-16 -2.83316057E+00 -2.96558120E+00
  0.00000000E+00  2.33109813E+00  5.72527307E+00  0.00000000E+00  8.77590139E+00
 -5.21341385E-01  7.75080078E-16  6.32921816E+00  3.47227543E+00  0.00000000E+00
  1.89357739E+00 -4.78197651E+00  0.00000000E+00  6.51282206E+00 -4.64197426E+00
 -2.85467758E-16 -2.33109813E+00  5.72527307E+00 -1.07470246E-15 -8.77590139E+00
 -5.21341385E-01 -7.97564328E-16 -6.51282206E+00 -4.64197426E+00 -2.31888691E-16
 -1.89357739E+00 -4.78197651E+00
Num ILSW                                   I              100
ILSW                                       I   N=         100
           0           1           0           0           2           0
           0           0           0           0         402          -1
           0           0           0           0           0           0
           0           0           1           0           0           0
           1           0           0           0           0           0
           0           0      100000           0          -1           0
           0           0           0           0           0           0
           0           0           0           1           0           0
           0           0           1           0           0           0
           0           0           4          41           0           0
           0           0           5           0           0           0
           0           0           0           0           0           0
           0           0           0           0           0           0
           0           0           0           0           0           0
           0           0           0           0           0           0
           0           0           0           0           0           0
           0           0           0           0
Num RLSW                                   I               41
RLSW                                       R   N=          41
  8.00000000E-01  7.20000000E-01  1.00000000E+00  8.10000000E-01  2.00000000E-01
  0.00000000E+00  0.00000000E+00  1.00000000E+00  0.00000000E+00  0.00000000E+00
  0.00000000E+00  0.00000000E+00  1.00000000E+00  0.00000000E+00  0.00000000E+00
  0.00000000E+00  0.00000000E+00  1.00000000E+00  0.00000000E+00  0.00000000E+00
  0.00000000E+00  0.00000000E+00  1.00000000E+00  0.00000000E+00  0.00000000E+00
  0.00000000E+00  0.00000000E+00  1.00000000E+00  0.00000000E+00  0.00000000E+00
  0.00000000E+00  0.00000000E+00  1.00000000E+00  0.00000000E+00  0.00000000E+00
  0.00000000E+00  0.00000000E+00  0.00000000E+00  1.00000000E+00  1.00000000E+00
  0.00000000E+00
MxBond                                     I                3
NBond                                      I   N=          24
           3           3           3           3           3           3
           3           3           3           3           3           1
           3           3           3           1           1           1
           1           1           1           1           1           1
IBond                                      I   N=          72
           2           6          17           1           3          18
           2           4           7           3           5           8
           4           6          19           1           5          20
           3          10          16           4           9          15
           8          10          11           7           9          21
           9          12          13          11           0           0
          11          14          22          13          15          23
           8          14          24           7           0           0
           1           0           0           2           0           0
           5           0           0           6           0           0
          10           0           0          13           0           0
          14           0           0          15           0           0
RBond                                      R   N=          72
  1.50000000E+00  1.50000000E+00  1.00000000E+00  1.50000000E+00  1.50000000E+00
  1.00000000E+00  1.50000000E+00  1.50000000E+00  1.00000000E+00  1.50000000E+00
  1.50000000E+00  1.00000000E+00  1.50000000E+00  1.50000000E+00  1.00000000E+00
  1.50000000E+00  1.50000000E+00  1.00000000E+00  1.00000000E+00  2.00000000E+00
  1.00000000E+00  1.00000000E+00  1.50000000E+00  1.50000000E+00  1.50000000E+00
  1.00000000E+00  1.50000000E+00  2.00000000E+00  1.00000000E+00  1.00000000E+00
  1.50000000E+00  1.00000000E+00  1.50000000E+00  1.00000000E+00  0.00000000E+00
  0.00000000E+00  1.50000000E+00  1.50000000E+00  1.00000000E+00  1.50000000E+00
  1.50000000E+00  1.00000000E+00  1.50000000E+00  1.50000000E+00  1.00000000E+00
  1.00000000E+00  0.00000000E+00  0.00000000E+00  1.00000000E+00  0.00000000E+00
  0.00000000E+00  1.00000000E+00  0.00000000E+00  0.00000000E+00  1.00000000E+00
  0.00000000E+00  0.00000000E+00  1.00000000E+00  0.00000000E+00  0.00000000E+00
  1.00000000E+00  0.00000000E+00  0.00000000E+00  1.00000000E+00  0.00000000E+00
  0.00000000E+00  1.00000000E+00  0.00000000E+00  0.00000000E+00  1.00000000E+00
  0.00000000E+00  0.00000000E+00
Virial Ratio                               R      2.008715329916534E+00
SCF Energy                                 R     -5.365690576098376E+02
Total Energy                               R     -5.365690576098376E+02
RMS Density                                R      7.476577257814974E-09
External E-field                           R   N=          35
  0.00000000E+00  0.00000000E+00  0.00000000E+00  0.00000000E+00  0.00000000E+00
  0.00000000E+00  0.00000000E+00  0.00000000E+00  0.00000000E+00  0.00000000E+00
  0.00000000E+00  0.00000000E+00  0.00000000E+00  0.00000000E+00  0.00000000E+00
  0.00000000E+00  0.00000000E+00  0.00000000E+00  0.00000000E+00  0.00000000E+00
  0.00000000E+00  0.00000000E+00  0.00000000E+00  0.00000000E+00  0.00000000E+00
  0.00000000E+00  0.00000000E+00  0.00000000E+00  0.00000000E+00  0.00000000E+00
  0.00000000E+00  0.00000000E+00  0.00000000E+00  0.00000000E+00  0.00000000E+00
IOpCl                                      I                0
IROHF                                      I                0
Alpha Orbital Energies                     R   N=         146
 -1.01455952E+01 -1.01445375E+01 -1.01419148E+01 -1.01417674E+01 -1.01321925E+01
 -1.01320933E+01 -1.01320719E+01 -1.01314716E+01 -1.01314541E+01 -1.01308709E+01
 -1.01308333E+01 -1.01307569E+01 -1.01297038E+01 -1.01296174E+01 -8.87202821E-01
 -8.54879763E-01 -8.14739254E-01 -7.80690952E-01 -7.60545388E-01 -7.29266670E-01
 -7.23818763E-01 -6.39206529E-01 -6.32070795E-01 -6.18455715E-01 -5.89753036E-01
 -5.38808284E-01 -5.38644753E-01 -5.05115058E-01 -4.86120787E-01 -4.82348296E-01
 -4.45874747E-01 -4.40559736E-01 -4.34805732E-01 -4.30858732E-01 -4.19282294E-01
 -4.05127726E-01 -3.99204884E-01 -3.70475695E-01 -3.66799121E-01 -3.63012823E-01
 -3.40204955E-01 -3.29816058E-01 -3.18031015E-01 -2.87303026E-01 -2.65523025E-01
 -2.27029840E-01 -2.15729533E-01 -3.74456986E-02 -2.98789205E-02  1.10820999E-02
  3.96776733E-02  8.36851450E-02  1.06204259E-01  1.19394636E-01  1.21390808E-01
  1.49492063E-01  1.65432122E-01  1.69098889E-01  1.80641263E-01  1.93505897E-01
  2.04196703E-01  2.10629855E-01  2.26928398E-01  2.52870670E-01  2.61333533E-01
  2.67049147E-01  2.94968287E-01  3.07491515E-01  3.24492722E-01  3.29106509E-01
  3.49498846E-01  3.51558865E-01  4.01786360E-01  4.15620923E-01  4.83653909E-01
  5.17202007E-01  5.47154779E-01  5.68683179E-01  6.23055996E-01  6.23984184E-01
  6.55533023E-01  6.74743362E-01  6.80075727E-01  7.00904771E-01  7.03236499E-01
  7.06481992E-01  7.24820150E-01  7.32204148E-01  7.45008502E-01  7.57916872E-01
  7.60871435E-01  7.65540616E-01  7.66602331E-01  7.99371471E-01  8.04700082E-01
  8.08017818E-01  8.08229116E-01  8.24793613E-01  8.27740865E-01  8.51428618E-01
  8.56919678E-01  8.57860867E-01  8.92347405E-01  8.96230039E-01  9.09373222E-01
  9.51830682E-01  9.73210062E-01  9.74268180E-01  9.85217954E-01  1.01845376E+00
  1.02943117E+00  1.05248265E+00  1.06782718E+00  1.06967088E+00  1.09345267E+00
  1.17594021E+00  1.19146450E+00  1.20318727E+00  1.25130011E+00  1.27229858E+00
  1.30591076E+00  1.34239918E+00  1.35343965E+00  1.36330911E+00  1.43589834E+00
  1.43943179E+00  1.46001715E+00  1.46503649E+00  1.49302738E+00  1.51050078E+00
  1.52494925E+00  1.52823364E+00  1.53385722E+00  1.54898456E+00  1.57555520E+00
  1.59095403E+00  1.75364056E+00  1.76109402E+00  1.84606819E+00  1.91601905E+00
  1.92206529E+00  1.95805043E+00  1.99752643E+00  2.43508500E+00  2.46297771E+00
  2.52344971E+00
Alpha MO coefficients                      R   N=       21316
 -6.56346960E-04 -4.13068449E-04  0.00000000E+00 -1.22529792E-04  1.50886272E-05
  8.67511071E-03  0.00000000E+00 -3.98965419E-03  3.35705245E-04  3.92511675E-03
  1.04559682E-03  0.00000000E+00 -7.75901691E-05 -4.98515138E-05 -3.11278159E-03
  0.00000000E+00 -9.83630349E-05  7.06998672E-03 -1.03694694E-01 -1.45630765E-02
  0.00000000E+00  6.49965306E-04  1.14604715E-03  3.83273949E-02  0.00000000E+00
 -1.51940162E-02 -1.68317251E-02  6.89520385E-01  8.10747851E-02  0.00000000E+00
 -1.11425322E-03  4.67607152E-04 -1.05121775E-01  0.00000000E+00  1.05168817E-02