b3lyp/6-311+G* opted                                                    
SP        RB3LYP                                                      6-311G(d)           
Number of atoms                            I                5
Info1-9                                    I   N=           9
          14          14           0           0           0         110
           1          18        -502
Charge                                     I                1
Multiplicity                               I                1
Number of electrons                        I               14
Number of alpha electrons                  I                7
Number of beta electrons                   I                7
Number of basis functions                  I               90
Number of independent functions            I               90
Number of point charges in /Mol/           I                0
Number of translation vectors              I                0
Atomic numbers                             I   N=           5
           3           3           3           3           3
Nuclear charges                            R   N=           5
  3.00000000E+00  3.00000000E+00  3.00000000E+00  3.00000000E+00  3.00000000E+00
Current cartesian coordinates              R   N=          15
  1.81106795E-07  2.93590498E+00  5.54479643E-24 -2.54256838E+00 -1.46795233E+00
  5.54479643E-24  2.54256820E+00 -1.46795264E+00  5.54479643E-24  0.00000000E+00
 -2.36847579E-16  5.17406826E+00  6.33640614E-16 -2.36847618E-16 -5.17406826E+00
Force Field                                I                0
Int Atom Types                             I   N=           5
           0           0           0           0           0
MM charges                                 R   N=           5
  0.00000000E+00  0.00000000E+00  0.00000000E+00  0.00000000E+00  0.00000000E+00
Integer atomic weights                     I   N=           5
           7           7           7           7           7
Real atomic weights                        R   N=           5
  7.01600450E+00  7.01600450E+00  7.01600450E+00  7.01600450E+00  7.01600450E+00
Atom fragment info                         I   N=           5
           0           0           0           0           0
Atom residue num                           I   N=           5
           0           0           0           0           0
Nuclear spins                              I   N=           5
           3           3           3           3           3
Nuclear ZEff                               R   N=           5
 -1.35000000E+00 -1.35000000E+00 -1.35000000E+00 -1.35000000E+00 -1.35000000E+00
Nuclear ZNuc                               R   N=           5
  3.00000000E+00  3.00000000E+00  3.00000000E+00  3.00000000E+00  3.00000000E+00
Nuclear QMom                               R   N=           5
 -4.01000000E+00 -4.01000000E+00 -4.01000000E+00 -4.01000000E+00 -4.01000000E+00
Nuclear GFac                               R   N=           5
  3.25642400E+00  3.25642400E+00  3.25642400E+00  3.25642400E+00  3.25642400E+00
MicOpt                                     I   N=           5
          -1          -1          -1          -1          -1
Number of contracted shells                I               25
Number of primitive shells                 I               60
Pure/Cartesian d shells                    I                0
Pure/Cartesian f shells                    I                0
Highest angular momentum                   I                2
Largest degree of contraction              I                6
Shell types                                I   N=          25
           0          -1          -1          -1          -2           0
          -1          -1          -1          -2           0          -1
          -1          -1          -2           0          -1          -1
          -1          -2           0          -1          -1          -1
          -2
Number of primitives per shell             I   N=          25
           6           3           1           1           1           6
           3           1           1           1           6           3
           1           1           1           6           3           1
           1           1           6           3           1           1
           1
Shell to atom map                          I   N=          25
           1           1           1           1           1           2
           2           2           2           2           3           3
           3           3           3           4           4           4
           4           4           5           5           5           5
           5
Primitive exponents                        R   N=          60
  9.00460000E+02  1.34433000E+02  3.04365000E+01  8.62639000E+00  2.48332000E+00
  3.03179000E-01  4.86890000E+00  8.56924000E-01  2.43227000E-01  6.35070000E-02
  2.43683000E-02  2.00000000E-01  9.00460000E+02  1.34433000E+02  3.04365000E+01
  8.62639000E+00  2.48332000E+00  3.03179000E-01  4.86890000E+00  8.56924000E-01
  2.43227000E-01  6.35070000E-02  2.43683000E-02  2.00000000E-01  9.00460000E+02
  1.34433000E+02  3.04365000E+01  8.62639000E+00  2.48332000E+00  3.03179000E-01
  4.86890000E+00  8.56924000E-01  2.43227000E-01  6.35070000E-02  2.43683000E-02
  2.00000000E-01  9.00460000E+02  1.34433000E+02  3.04365000E+01  8.62639000E+00
  2.48332000E+00  3.03179000E-01  4.86890000E+00  8.56924000E-01  2.43227000E-01
  6.35070000E-02  2.43683000E-02  2.00000000E-01  9.00460000E+02  1.34433000E+02
  3.04365000E+01  8.62639000E+00  2.48332000E+00  3.03179000E-01  4.86890000E+00
  8.56924000E-01  2.43227000E-01  6.35070000E-02  2.43683000E-02  2.00000000E-01
Contraction coefficients                   R   N=          60
  2.28704037E-03  1.76350029E-02  8.73434143E-02  2.80977046E-01  6.58741108E-01
  1.18712019E-01  9.33292995E-02  9.43044995E-01 -2.79826999E-03  1.00000000E+00
  1.00000000E+00  1.00000000E+00  2.28704037E-03  1.76350029E-02  8.73434143E-02
  2.80977046E-01  6.58741108E-01  1.18712019E-01  9.33292995E-02  9.43044995E-01
 -2.79826999E-03  1.00000000E+00  1.00000000E+00  1.00000000E+00  2.28704037E-03
  1.76350029E-02  8.73434143E-02  2.80977046E-01  6.58741108E-01  1.18712019E-01
  9.33292995E-02  9.43044995E-01 -2.79826999E-03  1.00000000E+00  1.00000000E+00
  1.00000000E+00  2.28704037E-03  1.76350029E-02  8.73434143E-02  2.80977046E-01
  6.58741108E-01  1.18712019E-01  9.33292995E-02  9.43044995E-01 -2.79826999E-03
  1.00000000E+00  1.00000000E+00  1.00000000E+00  2.28704037E-03  1.76350029E-02
  8.73434143E-02  2.80977046E-01  6.58741108E-01  1.18712019E-01  9.33292995E-02
  9.43044995E-01 -2.79826999E-03  1.00000000E+00  1.00000000E+00  1.00000000E+00
P(S=P) Contraction coefficients            R   N=          60
  0.00000000E+00  0.00000000E+00  0.00000000E+00  0.00000000E+00  0.00000000E+00
  0.00000000E+00  3.27660966E-02  1.59791983E-01  8.85666908E-01  1.00000000E+00
  1.00000000E+00  0.00000000E+00  0.00000000E+00  0.00000000E+00  0.00000000E+00
  0.00000000E+00  0.00000000E+00  0.00000000E+00  3.27660966E-02  1.59791983E-01
  8.85666908E-01  1.00000000E+00  1.00000000E+00  0.00000000E+00  0.00000000E+00
  0.00000000E+00  0.00000000E+00  0.00000000E+00  0.00000000E+00  0.00000000E+00
  3.27660966E-02  1.59791983E-01  8.85666908E-01  1.00000000E+00  1.00000000E+00
  0.00000000E+00  0.00000000E+00  0.00000000E+00  0.00000000E+00  0.00000000E+00
  0.00000000E+00  0.00000000E+00  3.27660966E-02  1.59791983E-01  8.85666908E-01
  1.00000000E+00  1.00000000E+00  0.00000000E+00  0.00000000E+00  0.00000000E+00
  0.00000000E+00  0.00000000E+00  0.00000000E+00  0.00000000E+00  3.27660966E-02
  1.59791983E-01  8.85666908E-01  1.00000000E+00  1.00000000E+00  0.00000000E+00
Coordinates of each shell                  R   N=          75
  2.64697796E-23  2.93590498E+00  5.54479643E-24  2.64697796E-23  2.93590498E+00
  5.54479643E-24  2.64697796E-23  2.93590498E+00  5.54479643E-24  2.64697796E-23
  2.93590498E+00  5.54479643E-24  2.64697796E-23  2.93590498E+00  5.54479643E-24
 -2.54256829E+00 -1.46795249E+00  5.54479643E-24 -2.54256829E+00 -1.46795249E+00
  5.54479643E-24 -2.54256829E+00 -1.46795249E+00  5.54479643E-24 -2.54256829E+00
 -1.46795249E+00  5.54479643E-24 -2.54256829E+00 -1.46795249E+00  5.54479643E-24
  2.54256829E+00 -1.46795249E+00  5.54479643E-24  2.54256829E+00 -1.46795249E+00
  5.54479643E-24  2.54256829E+00 -1.46795249E+00  5.54479643E-24  2.54256829E+00
 -1.46795249E+00  5.54479643E-24  2.54256829E+00 -1.46795249E+00  5.54479643E-24
  0.00000000E+00  0.00000000E+00  5.17406826E+00  0.00000000E+00  0.00000000E+00
  5.17406826E+00  0.00000000E+00  0.00000000E+00  5.17406826E+00  0.00000000E+00
  0.00000000E+00  5.17406826E+00  0.00000000E+00  0.00000000E+00  5.17406826E+00
  6.33640614E-16  0.00000000E+00 -5.17406826E+00  6.33640614E-16  0.00000000E+00
 -5.17406826E+00  6.33640614E-16  0.00000000E+00 -5.17406826E+00  6.33640614E-16
  0.00000000E+00 -5.17406826E+00  6.33640614E-16  0.00000000E+00 -5.17406826E+00
Constraint Structure                       R   N=          15
  2.64697796E-23  2.93590498E+00  5.54479643E-24 -2.54256829E+00 -1.46795249E+00
  5.54479643E-24  2.54256829E+00 -1.46795249E+00  5.54479643E-24  0.00000000E+00
  0.00000000E+00  5.17406826E+00  6.33640614E-16  0.00000000E+00 -5.17406826E+00
Num ILSW                                   I              100
ILSW                                       I   N=         100
           0           0           0           0           2           0
           0           0           0           0         402          -1
           0           0           0           0           0           0
           0           0           1           0           0           0
           1           0           0           0           0           0
           0           0      100000           0          -1           0
           0           0           0           0           0           0
           0           0           0           1           0           0
           0           0           1           0           0           0
           0           0           4          41           0           0
           0           0           5           0           0           0
           0           0           0           0           0           0
           0           0           0           0           0           0
           0           0           0           0           0           0
           0           0           0           0           0           0
           0           0           0           0           0           0
           0           0           0           0
Num RLSW                                   I               41
RLSW                                       R   N=          41
  8.00000000E-01  7.20000000E-01  1.00000000E+00  8.10000000E-01  2.00000000E-01
  0.00000000E+00  0.00000000E+00  1.00000000E+00  0.00000000E+00  0.00000000E+00
  0.00000000E+00  0.00000000E+00  1.00000000E+00  0.00000000E+00  0.00000000E+00
  0.00000000E+00  0.00000000E+00  1.00000000E+00  0.00000000E+00  0.00000000E+00
  0.00000000E+00  0.00000000E+00  1.00000000E+00  0.00000000E+00  0.00000000E+00
  0.00000000E+00  0.00000000E+00  1.00000000E+00  0.00000000E+00  0.00000000E+00
  0.00000000E+00  0.00000000E+00  1.00000000E+00  0.00000000E+00  0.00000000E+00
  0.00000000E+00  0.00000000E+00  0.00000000E+00  1.00000000E+00  1.00000000E+00
  0.00000000E+00
MxBond                                     I                4
NBond                                      I   N=           5
           4           4           4           3           3
IBond                                      I   N=          20
           2           3           4           5           1           3
           4           5           1           2           4           5
           1           2           3           0           1           2
           3           0
RBond                                      R   N=          20
  1.00000000E+00  1.00000000E+00  1.00000000E+00  1.00000000E+00  1.00000000E+00
  1.00000000E+00  1.00000000E+00  1.00000000E+00  1.00000000E+00  1.00000000E+00
  1.00000000E+00  1.00000000E+00  1.00000000E+00  1.00000000E+00  1.00000000E+00
  0.00000000E+00  1.00000000E+00  1.00000000E+00  1.00000000E+00  0.00000000E+00
Virial Ratio                               R      2.009568231607950E+00
SCF Energy                                 R     -3.742885602601106E+01
Total Energy                               R     -3.742885602601106E+01
RMS Density                                R      6.437626836666080E-09
External E-field                           R   N=          35
  0.00000000E+00  0.00000000E+00  0.00000000E+00  0.00000000E+00  0.00000000E+00
  0.00000000E+00  0.00000000E+00  0.00000000E+00  0.00000000E+00  0.00000000E+00
  0.00000000E+00  0.00000000E+00  0.00000000E+00  0.00000000E+00  0.00000000E+00
  0.00000000E+00  0.00000000E+00  0.00000000E+00  0.00000000E+00  0.00000000E+00
  0.00000000E+00  0.00000000E+00  0.00000000E+00  0.00000000E+00  0.00000000E+00
  0.00000000E+00  0.00000000E+00  0.00000000E+00  0.00000000E+00  0.00000000E+00
  0.00000000E+00  0.00000000E+00  0.00000000E+00  0.00000000E+00  0.00000000E+00
IOpCl                                      I                0
IROHF                                      I                0
Alpha Orbital Energies                     R   N=          90
 -2.13939525E+00 -2.13879385E+00 -2.13879385E+00 -2.12850255E+00 -2.12849076E+00
 -3.20324173E-01 -2.60119840E-01 -1.93983662E-01 -1.93983662E-01 -1.62635744E-01
 -1.48145227E-01 -1.48145227E-01 -1.33747997E-01 -1.32843592E-01 -1.19515966E-01
 -1.19515966E-01 -8.21748337E-02 -8.21748337E-02 -6.27676100E-02 -6.27676100E-02
 -5.43181920E-02 -5.29304187E-02 -4.68893640E-02 -4.68893640E-02 -4.24038101E-02
 -3.72657036E-02 -3.23575523E-02 -2.49641991E-02 -2.49641991E-02 -2.46488928E-02
 -2.46488928E-02 -1.05948136E-02 -2.62694036E-03  2.76043921E-03  2.76043921E-03
  3.09276485E-02  3.09276485E-02  3.56515777E-02  3.60786623E-02  3.81131170E-02
  3.81131170E-02  4.78479800E-02  7.41237539E-02  8.61041846E-02  8.61041846E-02
  2.11393850E-01  2.19791917E-01  2.19791917E-01  2.28578924E-01  2.68728001E-01
  2.68728001E-01  2.70476349E-01  2.89369338E-01  2.93143230E-01  2.93143230E-01
  2.98904344E-01  2.98904344E-01  3.17923048E-01  3.19270636E-01  3.19270636E-01
  3.24944845E-01  3.24944845E-01  3.30179115E-01  3.30179115E-01  3.82712306E-01
  3.82712306E-01  3.93865303E-01  3.93865303E-01  4.09059925E-01  4.45144701E-01
  4.70496552E-01  4.76021650E-01  4.89168371E-01  4.89168371E-01  5.32328272E-01
  5.32328272E-01  5.61465991E-01  6.00379555E-01  6.00379555E-01  6.16964288E-01
  6.93807532E-01  6.93807532E-01  7.02713206E-01  7.02713206E-01  7.35243420E-01
  3.41495916E+00  3.54592081E+00  3.65370690E+00  3.67208904E+00  3.67208904E+00
Alpha MO coefficients                      R   N=        8100
  3.56032906E-01  2.44516919E-01  0.00000000E+00  4.37539562E-03  0.00000000E+00
  1.33278346E-02  0.00000000E+00 -6.58991008E-03  0.00000000E+00 -1.21384632E-02
  0.00000000E+00  6.45522698E-03  0.00000000E+00  6.91499185E-04  0.00000000E+00
  0.00000000E+00 -9.21991925E-04  0.00000000E+00  3.56032906E-01  2.44516919E-01
 -3.78920376E-03 -2.18769781E-03  0.00000000E+00  1.33278346E-02  5.70702953E-03
  3.29495504E-03  0.00000000E+00 -1.21384632E-02 -5.59039055E-03 -3.22761349E-03
  0.00000000E+00  6.91499185E-04  0.00000000E+00  0.00000000E+00  4.60995962E-04
  7.98468428E-04  3.56032906E-01  2.44516919E-01  3.78920376E-03 -2.18769781E-03
  0.00000000E+00  1.33278346E-02 -5.70702953E-03  3.29495504E-03  0.00000000E+00
 -1.21384632E-02  5.59039055E-03 -3.22761349E-03  0.00000000E+00  6.91499185E-04
  0.00000000E+00  0.00000000E+00  4.60995962E-04 -7.98468428E-04  2.27195961E-03
  2.51177350E-03  0.00000000E+00 -8.28411269E-15  6.83129551E-04 -6.96238140E-03
  0.00000000E+00 -2.76475347E-13  6.74101555E-03  1.42839489E-02  0.00000000E+00
  3.36166002E-14 -6.90783779E-03 -2.18462277E-03  0.00000000E+00  2.28899725E-13
  3.92652860E-14  0.00000000E+00  2.27195961E-03  2.51177350E-03  0.00000000E+00
 -8.28411269E-15 -6.83129551E-04 -6.96238140E-03  0.00000000E+00 -2.76475347E-13
 -6.74101555E-03  1.42839489E-02  0.00000000E+00  3.36166002E-14  6.90783779E-03
 -2.18462277E-03  0.00000000E+00 -2.28899725E-13  3.92652860E-14  0.00000000E+00
  0.00000000E+00  0.00000000E+00  1.28280553E-03  0.00000000E+00  0.00000000E+00
  0.00000000E+00  7.88770767E-03  0.00000000E+00  0.00000000E+00  0.00000000E+00
 -3.82081710E-03  0.00000000E+00  0.00000000E+00  0.00000000E+00  0.00000000E+00
  0.00000000E+00  0.00000000E+00 -2.21188577E-03  4.36576040E-01  2.99085050E-01
 -1.44652105E-03 -1.57577743E-03  0.00000000E+00  3.95611903E-02  2.20491577E-02
  8.17611697E-03  0.00000000E+00 -2.38158758E-02 -9.77350504E-03 -3.43678598E-03
  0.00000000E+00 -1.45716194E-03  0.00000000E+00  0.00000000E+00  2.18895645E-03
  1.57949801E-03 -4.36576040E-01 -2.99085050E-01 -1.44652105E-03  1.57577743E-03
  0.00000000E+00 -3.95611903E-02  2.20491577E-02 -8.17611697E-03  0.00000000E+00
  2.38158758E-02 -9.77350504E-03  3.43678598E-03  0.00000000E+00  1.45716194E-03
  0.00000000E+00  0.00000000E+00 -2.18895645E-03  1.57949801E-03  0.00000000E+00
  0.00000000E+00  3.91305753E-04  0.00000000E+00  0.00000000E+00  0.00000000E+00
  3.83996893E-03  0.00000000E+00  0.00000000E+00  0.00000000E+00 -1.48526608E-03
  0.00000000E+00  0.00000000E+00  0.00000000E+00 -1.93070742E-03  0.00000000E+00
  0.00000000E+00 -5.44055010E-04  0.00000000E+00  0.00000000E+00  3.91305753E-04
  0.00000000E+00  0.00000000E+00  0.00000000E+00  3.83996893E-03  0.00000000E+00
  0.00000000E+00  0.00000000E+00 -1.48526608E-03  0.00000000E+00  0.00000000E+00
  0.00000000E+00  1.93070742E-03  0.00000000E+00  0.00000000E+00 -5.44055010E-04
  5.04114589E-01  3.45353668E-01  0.00000000E+00  2.35629658E-03  0.00000000E+00
  4.56813278E-02  0.00000000E+00 -2.67696410E-02  0.00000000E+00 -2.75002046E-02
  0.00000000E+00  1.17577343E-02  0.00000000E+00 -1.68258568E-03  0.00000000E+00
  0.00000000E+00 -2.84329261E-03  0.00000000E+00 -2.52057294E-01 -1.72676834E-01
  1.57577743E-03 -3.73030000E-04  0.00000000E+00 -2.28406639E-02 -8.17611697E-03
 -1.26081910E-02  0.00000000E+00  1.37501023E-02  3.43678598E-03  5.80504641E-03
  0.00000000E+00  8.41292841E-04  0.00000000E+00  0.00000000E+00  9.48091178E-04
 -2.18895645E-03 -2.52057294E-01 -1.72676834E-01 -1.57577743E-03 -3.73030000E-04
  0.00000000E+00 -2.28406639E-02  8.17611697E-03 -1.26081910E-02  0.00000000E+00
  1.37501023E-02 -3.43678598E-03  5.80504641E-03  0.00000000E+00  8.41292841E-04
  0.00000000E+00  0.00000000E+00  9.48091178E-04  2.18895645E-03  7.49314891E-13
  8.80701724E-13  0.00000000E+00 -3.91305753E-04 -4.53330982E-13 -1.55932620E-12
  0.00000000E+00 -3.83996893E-03  4.05885727E-12 -5.89569750E-12  0.00000000E+00
  1.48526608E-03  1.41155040E-12 -3.60777074E-12  0.00000000E+00  1.93070742E-03
  5.44055010E-04  0.00000000E+00  7.49314891E-13  8.80701724E-13  0.00000000E+00
 -3.91305753E-04  4.53330982E-13 -1.55932620E-12  0.00000000E+00 -3.83996893E-03
 -4.05885727E-12 -5.89569750E-12  0.00000000E+00  1.48526608E-03 -1.41155040E-12
 -3.60777074E-12  0.00000000E+00 -1.93070742E-03  5.44055010E-04  0.00000000E+00
  0.00000000E+00  0.00000000E+00  0.00000000E+00  0.00000000E+00 -2.97353914E-04
  0.00000000E+00  0.00000000E+00  0.00000000E+00 -8.33353738E-03  0.00000000E+00
  0.00000000E+00  0.00000000E+00  1.39488305E-02  0.00000000E+00  0.00000000E+00
  1.61356468E-03  0.00000000E+00  0.00000000E+00  0.00000000E+00  0.00000000E+00
  0.00000000E+00  0.00000000E+00 -2.97353914E-04  0.00000000E+00  0.00000000E+00
  0.00000000E+00 -8.33353738E-03  0.00000000E+00  0.00000000E+00  0.00000000E+00
  1.39488305E-02  0.00000000E+00 -1.39738800E-03 -8.06782340E-04  0.00000000E+00
  0.00000000E+00  0.00000000E+00  0.00000000E+00  0.00000000E+00  0.00000000E+00
 -2.97353914E-04  0.00000000E+00  0.00000000E+00  0.00000000E+00 -8.33353738E-03
  0.00000000E+00  0.00000000E+00  0.00000000E+00  1.39488305E-02  0.00000000E+00
  1.39738800E-03 -8.06782340E-04  0.00000000E+00  0.00000000E+00  4.36016167E-01
  3.00132533E-01  0.00000000E+00 -2.00670716E-16  4.09396927E-03  2.65218812E-02
  0.00000000E+00 -1.04117721E-13 -1.27331431E-02 -4.65802030E-02  0.00000000E+00
  8.67581934E-14  1.71948412E-02  1.77070228E-03  0.00000000E+00  9.68920263E-14
  2.04039335E-14  0.00000000E+00 -4.36016167E-01 -3.00132533E-01  0.00000000E+00
  2.00670716E-16  4.09396927E-03 -2.65218812E-02  0.00000000E+00  1.04117721E-13
 -1.27331431E-02  4.65802030E-02  0.00000000E+00 -8.67581934E-14  1.71948412E-02
 -1.77070228E-03  0.00000000E+00  9.68920263E-14 -2.04039335E-14  0.00000000E+00
 -2.25341196E-03 -7.13815455E-04  0.00000000E+00  5.27263863E-04  0.00000000E+00
 -5.42071643E-03  0.00000000E+00  1.98699089E-03  0.00000000E+00  1.54469110E-02
  0.00000000E+00 -8.59553933E-04  0.00000000E+00 -1.91170390E-03  0.00000000E+00
  0.00000000E+00  3.61952326E-04  0.00000000E+00 -2.25341196E-03 -7.13815454E-04
 -4.56623900E-04 -2.63631931E-04  0.00000000E+00 -5.42071643E-03 -1.72078459E-03
 -9.93495444E-04  0.00000000E+00  1.54469110E-02  7.44395542E-04  4.29776967E-04
  0.00000000E+00 -1.91170390E-03  0.00000000E+00  0.00000000E+00 -1.80976163E-04
 -3.13459909E-04 -2.25341196E-03 -7.13815454E-04  4.56623900E-04 -2.63631931E-04
  0.00000000E+00 -5.42071643E-03  1.72078459E-03 -9.93495444E-04  0.00000000E+00
  1.54469110E-02 -7.44395542E-04  4.29776967E-04  0.00000000E+00 -1.91170390E-03
  0.00000000E+00  0.00000000E+00 -1.80976163E-04  3.13459909E-04  4.35966918E-01
  3.00422176E-01  0.00000000E+00 -5.22896253E-15  4.26950388E-03  2.19669976E-02
  0.00000000E+00  6.42873490E-14 -1.07587119E-02 -2.76690781E-02  0.00000000E+00
 -2.06978988E-14  1.33658054E-02  1.69342760E-03  0.00000000E+00 -6.02584142E-14
 -1.21426113E-14  0.00000000E+00  4.35966918E-01  3.00422176E-01  0.00000000E+00
 -5.22896253E-15 -4.26950388E-03  2.19669976E-02  0.00000000E+00  6.42873490E-14
  1.07587119E-02 -2.76690781E-02  0.00000000E+00 -2.06978988E-14 -1.33658054E-02
  1.69342760E-03  0.00000000E+00  6.02584142E-14 -1.21426113E-14  0.00000000E+00
 -6.90225111E-02 -9.43486111E-02  0.00000000E+00 -5.74596457E-02  0.00000000E+00
  2.54879453E-01  0.00000000E+00 -6.97027494E-02  0.00000000E+00 -4.49637417E-03
  0.00000000E+00  2.04589017E-02  0.00000000E+00  3.75944835E-03  0.00000000E+00
  0.00000000E+00 -6.50143566E-03  0.00000000E+00 -6.90225111E-02 -9.43486111E-02
  4.97615129E-02  2.87298229E-02  0.00000000E+00  2.54879453E-01  6.03643517E-02
  3.48513747E-02  0.00000000E+00 -4.49637415E-03 -1.77179286E-02 -1.02294508E-02
  0.00000000E+00  3.75944835E-03  0.00000000E+00  0.00000000E+00  3.25071783E-03
  5.63040844E-03 -6.90225111E-02 -9.43486111E-02 -4.97615129E-02  2.87298229E-02
  0.00000000E+00  2.54879453E-01 -6.03643517E-02  3.48513747E-02  0.00000000E+00
 -4.49637415E-03  1.77179286E-02 -1.02294508E-02  0.00000000E+00  3.75944835E-03
  0.00000000E+00  0.00000000E+00  3.25071783E-03 -5.63040844E-03 -4.42166654E-02
 -6.10857490E-02  0.00000000E+00 -1.92231500E-14 -4.23194812E-02  1.96447887E-01
  0.00000000E+00  2.42455199E-13 -6.77162200E-02  4.88636203E-02  0.00000000E+00
  2.57641162E-13 -5.54888514E-03  7.07636548E-03  0.00000000E+00 -7.18663167E-14
 -1.07028415E-14  0.00000000E+00 -4.42166654E-02 -6.10857490E-02  0.00000000E+00
 -1.92231500E-14  4.23194812E-02  1.96447887E-01  0.00000000E+00  2.42455199E-13
  6.77162200E-02  4.88636203E-02  0.00000000E+00  2.57641162E-13  5.54888514E-03
  7.07636548E-03  0.00000000E+00  7.18663167E-14 -1.07028415E-14  0.00000000E+00
  0.00000000E+00  0.00000000E+00  0.00000000E+00  0.00000000E+00  9.53434411E-02
  0.00000000E+00  0.00000000E+00  0.00000000E+00  1.41884731E-01  0.00000000E+00
  0.00000000E+00  0.00000000E+00 -1.33794922E-02  0.00000000E+00  0.00000000E+00
 -1.49823630E-02  0.00000000E+00  0.00000000E+00  0.00000000E+00  0.00000000E+00
  0.00000000E+00  0.00000000E+00  9.53434411E-02  0.00000000E+00  0.00000000E+00
  0.00000000E+00  1.41884731E-01  0.00000000E+00  0.00000000E+00  0.00000000E+00
 -1.33794922E-02  0.00000000E+00  1.29751070E-02  7.49118151E-03  0.00000000E+00
  0.00000000E+00  0.00000000E+00  0.00000000E+00  0.00000000E+00  0.00000000E+00
  9.53434411E-02  0.00000000E+00  0.00000000E+00  0.00000000E+00  1.41884731E-01
  0.00000000E+00  0.00000000E+00  0.00000000E+00 -1.33794922E-02  0.00000000E+00
 -1.29751070E-02  7.49118151E-03  0.00000000E+00  0.00000000E+00 -6.78732152E-02
 -9.78374083E-02  0.00000000E+00 -2.49505685E-15 -4.13850636E-02  3.57430414E-01
  0.00000000E+00 -2.81756989E-14 -1.00210815E-01  1.39526545E-01  0.00000000E+00
  4.20612821E-14 -9.22588144E-03  6.83735875E-03  0.00000000E+00  6.24916197E-14
  1.90984101E-14  0.00000000E+00  6.78732152E-02  9.78374083E-02  0.00000000E+00
  2.49505685E-15 -4.13850636E-02 -3.57430414E-01  0.00000000E+00  2.81756989E-14
 -1.00210815E-01 -1.39526545E-01  0.00000000E+00 -4.20612821E-14 -9.22588144E-03
 -6.83735875E-03  0.00000000E+00  6.24916197E-14 -1.90984101E-14  0.00000000E+00
  0.00000000E+00  0.00000000E+00 -1.01240284E-01  0.00000000E+00  0.00000000E+00
  0.00000000E+00 -1.62707247E-01  0.00000000E+00  0.00000000E+00  0.00000000E+00
 -6.25080602E-04  0.00000000E+00  0.00000000E+00  0.00000000E+00  0.00000000E+00
  0.00000000E+00  0.00000000E+00  1.04232139E-02 -6.13007927E-02 -8.94729754E-02
 -4.84574316E-02  3.04741938E-02  0.00000000E+00  3.74931497E-01 -1.19183793E-02
  8.70579935E-02  0.00000000E+00  5.69537061E-01  9.19063216E-02  5.34230300E-02
  0.00000000E+00  9.06705024E-03  0.00000000E+00  0.00000000E+00 -6.06975737E-03
 -8.99142885E-05  6.13007927E-02  8.94729754E-02 -4.84574316E-02 -3.04741938E-02
  0.00000000E+00 -3.74931497E-01 -1.19183793E-02 -8.70579935E-02  0.00000000E+00
 -5.69537061E-01  9.19063216E-02 -5.34230300E-02  0.00000000E+00 -9.06705024E-03
  0.00000000E+00  0.00000000E+00  6.06975737E-03 -8.99142885E-05  0.00000000E+00
  0.00000000E+00 -6.47349285E-02  0.00000000E+00  0.00000000E+00  0.00000000E+00
 -1.36184228E-01  0.00000000E+00  0.00000000E+00  0.00000000E+00 -8.04071300E-03
  0.00000000E+00  0.00000000E+00  0.00000000E+00  1.09328090E-02  0.00000000E+00
  0.00000000E+00 -1.61154218E-03  0.00000000E+00  0.00000000E+00 -6.47349285E-02
  0.00000000E+00  0.00000000E+00  0.00000000E+00 -1.36184228E-01  0.00000000E+00
  0.00000000E+00  0.00000000E+00 -8.04071300E-03  0.00000000E+00  0.00000000E+00
  0.00000000E+00 -1.09328090E-02  0.00000000E+00  0.00000000E+00 -1.61154218E-03
 -7.07840584E-02 -1.03314493E-01  0.00000000E+00  3.08631477E-02  0.00000000E+00
  4.32933601E-01  0.00000000E+00 -3.83445767E-02  0.00000000E+00  6.57644751E-01
  0.00000000E+00 -1.22750122E-01  0.00000000E+00  1.04697278E-02  0.00000000E+00
  0.00000000E+00  3.59429034E-03  0.00000000E+00  3.53920292E-02  5.16572464E-02
 -3.04741938E-02  8.36459996E-02  0.00000000E+00 -2.16466801E-01 -8.70579935E-02
  1.12444291E-01  0.00000000E+00 -3.28822375E-01 -5.34230300E-02 -3.02187201E-02
  0.00000000E+00 -5.23486390E-03  0.00000000E+00  0.00000000E+00 -6.91883782E-03
  6.06975737E-03  3.53920292E-02  5.16572464E-02  3.04741938E-02  8.36459996E-02
  0.00000000E+00 -2.16466801E-01  8.70579935E-02  1.12444291E-01  0.00000000E+00
 -3.28822375E-01  5.34230300E-02 -3.02187201E-02  0.00000000E+00 -5.23486390E-03
  0.00000000E+00  0.00000000E+00 -6.91883782E-03 -6.06975737E-03 -6.44790102E-16
 -7.42501345E-14  0.00000000E+00  6.47349285E-02  1.86659549E-13  6.28580130E-13
  0.00000000E+00  1.36184228E-01 -2.06019181E-12  2.99263608E-12  0.00000000E+00
  8.04071300E-03 -6.45410567E-13  2.05297552E-12  0.00000000E+00 -1.09328090E-02
  1.61154218E-03  0.00000000E+00 -6.44790102E-16 -7.42501345E-14  0.00000000E+00
  6.47349285E-02 -1.86659549E-13  6.28580130E-13  0.00000000E+00  1.36184228E-01
  2.06019181E-12  2.99263608E-12  0.00000000E+00  8.04071300E-03  6.45410567E-13
  2.05297552E-12  0.00000000E+00  1.09328090E-02  1.61154218E-03  0.00000000E+00
  2.09454391E-02  3.24822292E-02  0.00000000E+00  9.17245037E-02  0.00000000E+00
 -1.38816333E-01  0.00000000E+00  1.53040384E-01  0.00000000E+00 -1.07568630E-01
  0.00000000E+00  3.10337273E-02  0.00000000E+00  6.69458052E-03  0.00000000E+00
  0.00000000E+00  1.07719586E-02  0.00000000E+00  2.09454391E-02  3.24822292E-02
 -7.94357504E-02 -4.58622519E-02  0.00000000E+00 -1.38816333E-01 -1.32536860E-01
 -7.65201918E-02  0.00000000E+00 -1.07568630E-01 -2.68759962E-02 -1.55168636E-02
  0.00000000E+00  6.69458052E-03  0.00000000E+00  0.00000000E+00 -5.38597930E-03
 -9.32878979E-03  2.09454391E-02  3.24822292E-02  7.94357504E-02 -4.58622519E-02
  0.00000000E+00 -1.38816333E-01  1.32536860E-01 -7.65201918E-02  0.00000000E+00
 -1.07568630E-01  2.68759962E-02 -1.55168636E-02  0.00000000E+00  6.69458052E-03
  0.00000000E+00  0.00000000E+00 -5.38597930E-03  9.32878979E-03 -5.00930382E-02
 -7.27927503E-02  0.00000000E+00  6.65211805E-14  8.97711899E-02  2.96356029E-01
  0.00000000E+00 -1.28921418E-14  1.05130983E-01  5.63169672E-01  0.00000000E+00
 -1.00595488E-13 -7.22975928E-02 -1.21110040E-02  0.00000000E+00  3.25357543E-14
  1.71760275E-14  0.00000000E+00 -5.00930382E-02 -7.27927503E-02  0.00000000E+00
  6.65211805E-14 -8.97711899E-02  2.96356029E-01  0.00000000E+00 -1.28921418E-14
 -1.05130983E-01  5.63169672E-01  0.00000000E+00 -1.00595488E-13  7.22975928E-02
 -1.21110040E-02  0.00000000E+00 -3.25357543E-14  1.71760275E-14  0.00000000E+00
  0.00000000E+00  0.00000000E+00  0.00000000E+00  0.00000000E+00  0.00000000E+00
  0.00000000E+00  0.00000000E+00  0.00000000E+00  0.00000000E+00  0.00000000E+00
  0.00000000E+00  0.00000000E+00  0.00000000E+00  0.00000000E+00 -2.34677924E-02
  0.00000000E+00  0.00000000E+00  0.00000000E+00  0.00000000E+00  0.00000000E+00
  0.00000000E+00  0.00000000E+00  9.75864922E-02  0.00000000E+00  0.00000000E+00