 Title Card Required
GAUSSIAN              5 MOL ORBITALS     64 PRIMITIVES        5 NUCLEI
  C    1    (CENTRE  1)   0.00000000  0.00000000 -3.37127142  CHARGE =  6.0
  H    2    (CENTRE  2)   1.69319462  0.97698841 -2.67774193  CHARGE =  1.0
  H    3    (CENTRE  3)   0.00000000  0.00000000 -5.44430099  CHARGE =  1.0
  H    4    (CENTRE  4)  -1.69319462  0.97698841 -2.67774193  CHARGE =  1.0
  H    5    (CENTRE  5)   0.00000000 -1.95586655 -2.67774193  CHARGE =  1.0
CENTRE ASSIGNMENTS    1  1  1  1  1  1  1  1  1  1  1  1  1  1  1  1  1  1  1  1
CENTRE ASSIGNMENTS    1  1  1  1  1  1  1  1  1  1  1  1  2  2  2  2  2  2  2  2
CENTRE ASSIGNMENTS    3  3  3  3  3  3  3  3  4  4  4  4  4  4  4  4  5  5  5  5
CENTRE ASSIGNMENTS    5  5  5  5
TYPE ASSIGNMENTS      1  1  1  1  1  1  1  1  1  2  2  2  3  3  3  4  4  4  1  2
TYPE ASSIGNMENTS      3  4  1  2  3  4  5  6  7  8  9 10  1  1  1  1  1  2  3  4
TYPE ASSIGNMENTS      1  1  1  1  1  2  3  4  1  1  1  1  1  2  3  4  1  1  1  1
TYPE ASSIGNMENTS      1  2  3  4
EXPONENTS  0.4563240D+04 0.6820240D+03 0.1549730D+03 0.4445530D+02 0.1302900D+02
EXPONENTS  0.1827730D+01 0.2096420D+02 0.4803310D+01 0.1459330D+01 0.2096420D+02
EXPONENTS  0.4803310D+01 0.1459330D+01 0.2096420D+02 0.4803310D+01 0.1459330D+01
EXPONENTS  0.2096420D+02 0.4803310D+01 0.1459330D+01 0.4834560D+00 0.4834560D+00
EXPONENTS  0.4834560D+00 0.4834560D+00 0.1455850D+00 0.1455850D+00 0.1455850D+00
EXPONENTS  0.1455850D+00 0.6260000D+00 0.6260000D+00 0.6260000D+00 0.6260000D+00
EXPONENTS  0.6260000D+00 0.6260000D+00 0.3386500D+02 0.5094790D+01 0.1158790D+01
EXPONENTS  0.3258400D+00 0.1027410D+00 0.7500000D+00 0.7500000D+00 0.7500000D+00
EXPONENTS  0.3386500D+02 0.5094790D+01 0.1158790D+01 0.3258400D+00 0.1027410D+00
EXPONENTS  0.7500000D+00 0.7500000D+00 0.7500000D+00 0.3386500D+02 0.5094790D+01
EXPONENTS  0.1158790D+01 0.3258400D+00 0.1027410D+00 0.7500000D+00 0.7500000D+00
EXPONENTS  0.7500000D+00 0.3386500D+02 0.5094790D+01 0.1158790D+01 0.3258400D+00
EXPONENTS  0.1027410D+00 0.7500000D+00 0.7500000D+00 0.7500000D+00
MO    1     MO 0.0        OCC NO =    2.0000000  ORB. ENERGY =  -10.155180
  0.43810111D+00  0.81556589D+00  0.13415982D+01  0.18015412D+01  0.16962190D+01
  0.13938961D+00  0.37084602D+00  0.98540732D+00 -0.13283979D-02 -0.44373148D-15
 -0.41522333D-15 -0.32160652D-15 -0.11054564D-05 -0.10344348D-05 -0.80120977D-06
 -0.11862486D-06 -0.11100364D-06 -0.85976613D-07  0.77470374D-02  0.42841010D-15
  0.38549114D-05 -0.25517859D-05 -0.63304424D-03 -0.73464702D-16 -0.29344306D-07
  0.27892229D-06 -0.10218827D-05 -0.58853793D-05  0.69072619D-05  0.29555935D-15
  0.18021317D-15  0.25626544D-05  0.55180451D-04  0.99537662D-04  0.14674475D-03
 -0.92597323D-03  0.15991498D-03  0.16743418D-02  0.96617005D-03  0.68480766D-03
  0.54689761D-04  0.98652526D-04  0.14543983D-03 -0.92919144D-03  0.16073387D-03
 -0.73038224D-17 -0.12890174D-06 -0.20569678D-02  0.55180451D-04  0.99537662D-04
  0.14674475D-03 -0.92597323D-03  0.15991498D-03 -0.16743418D-02  0.96617005D-03
  0.68480766D-03  0.55652767D-04  0.10038965D-03  0.14800081D-03 -0.92279683D-03
  0.15940394D-03 -0.40656190D-16 -0.19277113D-02  0.68236525D-03
MO    2     MO 0.0        OCC NO =    2.0000000  ORB. ENERGY =   -0.694052
 -0.84891910D-01 -0.15803417D+00 -0.25996472D+00 -0.34908899D+00 -0.32868045D+00
 -0.27009860D-01 -0.13525060D+00 -0.35938616D+00  0.48447765D-03 -0.21400606D-14
 -0.20025694D-14 -0.15510674D-14  0.99320859D-04  0.92939853D-04  0.71985508D-04
  0.45801256D-04  0.42858691D-04  0.33195713D-04  0.18277400D+00  0.24065213D-14
  0.19843723D-04  0.25012655D-04  0.44555837D-01 -0.45207248D-16  0.17656116D-05
  0.20267515D-05 -0.49228688D-05 -0.18178903D-04  0.23101772D-04  0.24939377D-14
  0.15612675D-14  0.49018631D-05  0.21885021D-01  0.39477456D-01  0.58200176D-01
  0.31008289D-01  0.16406980D-02 -0.13254550D-01 -0.76466756D-02 -0.54266358D-02
  0.21902927D-01  0.39509756D-01  0.58247795D-01  0.31023027D-01  0.16408527D-02
 -0.30975906D-15  0.17365821D-05  0.16236724D-01  0.21885021D-01  0.39477456D-01
  0.58200176D-01  0.31008289D-01  0.16406980D-02  0.13254550D-01 -0.76466756D-02
 -0.54266358D-02  0.21861232D-01  0.39434544D-01  0.58136912D-01  0.30985228D-01
  0.16397462D-02 -0.28357085D-15  0.15296750D-01 -0.54209333D-02
MO    3     MO 0.0        OCC NO =    2.0000000  ORB. ENERGY =   -0.394047
  0.38919838D-04  0.72452891D-04  0.11918432D-03  0.16004455D-03  0.15068797D-03
  0.12383034D-04  0.61917229D-04  0.16452567D-03 -0.22179210D-06  0.22281451D-12
  0.20849949D-12  0.16149091D-12  0.26687091D-01  0.24972542D-01  0.19342199D-01
  0.52601450D+00  0.49221997D+00  0.38124340D+00 -0.90220391D-04  0.71253648D-13
  0.84941373D-02  0.16751445D+00 -0.11837629D-04  0.10222822D-13  0.13002219D-02
  0.25661246D-01  0.95543882D-02  0.82679038D-02 -0.17822292D-01  0.10642649D-13
  0.73330751D-14  0.91058083D-03  0.16579821D-01  0.29907631D-01  0.44091731D-01
  0.27270410D-01  0.63427000D-02 -0.78024805D-02 -0.38549777D-02  0.95714304D-02
 -0.46366396D-01 -0.83638363D-01 -0.12330499D+00 -0.76260768D-01 -0.17736136D-01
  0.55821994D-14  0.64698922D-03 -0.13933611D-01  0.16579821D-01  0.29907631D-01
  0.44091731D-01  0.27270410D-01  0.63427000D-02  0.78024805D-02 -0.38549777D-02
  0.95714304D-02  0.13246567D-01  0.23894917D-01  0.35227405D-01  0.21791003D-01
  0.50679014D-02  0.55803882D-14  0.78452878D-02  0.10206340D-01
MO    4     MO 0.0        OCC NO =    2.0000000  ORB. ENERGY =   -0.393702
  0.37719835D-16  0.70218975D-16  0.11550955D-15  0.15510994D-15  0.14604186D-15
  0.12001232D-16  0.28474555D-15  0.75662224D-15 -0.10199796D-17  0.52657210D+00
  0.49274174D+00  0.38164753D+00  0.32361524D-12  0.30282413D-12  0.23454900D-12
 -0.23934372D-12 -0.22396675D-12 -0.17347090D-12 -0.26371024D-15  0.16774313D+00
  0.10140574D-12 -0.77117607D-13 -0.31334028D-14  0.25713739D-01  0.15947497D-13
 -0.11824975D-13  0.29184101D-14 -0.11651095D-13  0.87326845D-14  0.25241668D-01
  0.17931796D-01  0.10457452D-13  0.37898382D-01  0.68363274D-01  0.10078549D+00
  0.62366803D-01  0.14536550D-01 -0.50186153D-02 -0.10277157D-01 -0.72896689D-02
  0.21128366D-13  0.38112557D-13  0.56187955D-13  0.35592588D-13  0.85772837D-14
  0.12800516D-01  0.79136631D-14  0.68358347D-14 -0.37898382D-01 -0.68363274D-01
 -0.10078549D+00 -0.62366803D-01 -0.14536550D-01 -0.50186153D-02  0.10277157D-01
  0.72896689D-02 -0.34005991D-13 -0.61341956D-13 -0.90434213D-13 -0.54627921D-13
 -0.12463856D-13  0.12783400D-01 -0.10039163D-13  0.55288262D-15
MO    5     MO 0.0        OCC NO =    2.0000000  ORB. ENERGY =   -0.393562
 -0.12998658D-05 -0.24198208D-05 -0.39805824D-05 -0.53452541D-05 -0.50327582D-05
 -0.41357525D-06 -0.11172126D-05 -0.29686432D-05  0.40019384D-08 -0.33562580D-12
 -0.31406305D-12 -0.24325397D-12  0.52579278D+00  0.49201250D+00  0.38108270D+00
 -0.26619451D-01 -0.24909248D-01 -0.19293175D-01  0.60788596D-06 -0.10679195D-12
  0.16752156D+00 -0.84854400D-02 -0.11863415D-04 -0.17003694D-13  0.25689686D-01
 -0.13018662D-02  0.12157559D-01 -0.13063921D-01  0.90636175D-03 -0.16216186D-13
 -0.11664673D-13  0.17896206D-01  0.21058606D-01  0.37986721D-01  0.56002440D-01
  0.34659124D-01  0.80840429D-02 -0.98918481D-02  0.70689715D-02 -0.46960260D-02
  0.23479931D-02  0.42354446D-02  0.62441617D-02  0.38635833D-02  0.90041862D-03
 -0.79431209D-14  0.12785518D-01  0.70238086D-03  0.21058606D-01  0.37986721D-01
  0.56002440D-01  0.34659124D-01  0.80840429D-02  0.98918481D-02  0.70689715D-02
 -0.46960260D-02 -0.44484704D-01 -0.80244059D-01 -0.11830089D+00 -0.73231385D-01
 -0.17082425D-01 -0.78860428D-14 -0.11362784D-01  0.79021906D-02
END DATA
 TOTAL ENERGY =      -40.533626796618 THE VIRIAL(-V/T)=   2.00707146
