CH3 for CDA                                                             
SP        UB3LYP                                                      6-31G(d,p)          
Number of atoms                            I                4
Info1-9                                    I   N=           9
          12          11           0           0           0         110
           1          18        -502
Charge                                     I                0
Multiplicity                               I                2
Number of electrons                        I                9
Number of alpha electrons                  I                5
Number of beta electrons                   I                4
Number of basis functions                  I               30
Number of independent functions            I               30
Number of point charges in /Mol/           I                0
Number of translation vectors              I                0
Atomic numbers                             I   N=           4
           6           1           1           1
Nuclear charges                            R   N=           4
  6.00000000E+00  1.00000000E+00  1.00000000E+00  1.00000000E+00
Current cartesian coordinates              R   N=          12
  9.74021541E-02  1.32997036E+00  0.00000000E+00  1.12128979E+00  2.01173819E+00
  1.66375268E+00  1.12128979E+00  2.01173819E+00 -1.66375268E+00 -1.77992360E+00
  2.23799888E+00  0.00000000E+00
Force Field                                I                0
Int Atom Types                             I   N=           4
           0           0           0           0
MM charges                                 R   N=           4
  0.00000000E+00  0.00000000E+00  0.00000000E+00  0.00000000E+00
Integer atomic weights                     I   N=           4
          12           1           1           1
Real atomic weights                        R   N=           4
  1.20000000E+01  1.00782504E+00  1.00782504E+00  1.00782504E+00
Atom fragment info                         I   N=           4
           0           0           0           0
Atom residue num                           I   N=           4
           0           0           0           0
Nuclear spins                              I   N=           4
           0           1           1           1
Nuclear ZEff                               R   N=           4
 -3.60000000E+00 -1.00000000E+00 -1.00000000E+00 -1.00000000E+00
Nuclear ZNuc                               R   N=           4
  6.00000000E+00  1.00000000E+00  1.00000000E+00  1.00000000E+00
Nuclear QMom                               R   N=           4
  0.00000000E+00  0.00000000E+00  0.00000000E+00  0.00000000E+00
Nuclear GFac                               R   N=           4
  0.00000000E+00  2.79284600E+00  2.79284600E+00  2.79284600E+00
MicOpt                                     I   N=           4
          -1          -1          -1          -1
Number of contracted shells                I               13
Number of primitive shells                 I               26
Pure/Cartesian d shells                    I                1
Pure/Cartesian f shells                    I                0
Highest angular momentum                   I                2
Largest degree of contraction              I                6
Shell types                                I   N=          13
           0          -1          -1           2           0           0
           1           0           0           1           0           0
           1
Number of primitives per shell             I   N=          13
           6           3           1           1           3           1
           1           3           1           1           3           1
           1
Shell to atom map                          I   N=          13
           1           1           1           1           2           2
           2           3           3           3           4           4
           4
Primitive exponents                        R   N=          26
  3.04752488E+03  4.57369518E+02  1.03948685E+02  2.92101553E+01  9.28666296E+00
  3.16392696E+00  7.86827235E+00  1.88128854E+00  5.44249258E-01  1.68714478E-01
  8.00000000E-01  1.87311370E+01  2.82539436E+00  6.40121692E-01  1.61277759E-01
  1.10000000E+00  1.87311370E+01  2.82539436E+00  6.40121692E-01  1.61277759E-01
  1.10000000E+00  1.87311370E+01  2.82539436E+00  6.40121692E-01  1.61277759E-01
  1.10000000E+00
Contraction coefficients                   R   N=          26
  1.83473713E-03  1.40373228E-02  6.88426223E-02  2.32184443E-01  4.67941348E-01
  3.62311985E-01 -1.19332420E-01 -1.60854152E-01  1.14345644E+00  1.00000000E+00
  1.00000000E+00  3.34946043E-02  2.34726953E-01  8.13757326E-01  1.00000000E+00
  1.00000000E+00  3.34946043E-02  2.34726953E-01  8.13757326E-01  1.00000000E+00
  1.00000000E+00  3.34946043E-02  2.34726953E-01  8.13757326E-01  1.00000000E+00
  1.00000000E+00
P(S=P) Contraction coefficients            R   N=          26
  0.00000000E+00  0.00000000E+00  0.00000000E+00  0.00000000E+00  0.00000000E+00
  0.00000000E+00  6.89990666E-02  3.16423961E-01  7.44308291E-01  1.00000000E+00
  0.00000000E+00  0.00000000E+00  0.00000000E+00  0.00000000E+00  0.00000000E+00
  0.00000000E+00  0.00000000E+00  0.00000000E+00  0.00000000E+00  0.00000000E+00
  0.00000000E+00  0.00000000E+00  0.00000000E+00  0.00000000E+00  0.00000000E+00
  0.00000000E+00
Coordinates of each shell                  R   N=          39
  9.74021541E-02  1.32997036E+00  0.00000000E+00  9.74021541E-02  1.32997036E+00
  0.00000000E+00  9.74021541E-02  1.32997036E+00  0.00000000E+00  9.74021541E-02
  1.32997036E+00  0.00000000E+00  1.12128979E+00  2.01173819E+00  1.66375268E+00
  1.12128979E+00  2.01173819E+00  1.66375268E+00  1.12128979E+00  2.01173819E+00
  1.66375268E+00  1.12128979E+00  2.01173819E+00 -1.66375268E+00  1.12128979E+00
  2.01173819E+00 -1.66375268E+00  1.12128979E+00  2.01173819E+00 -1.66375268E+00
 -1.77992360E+00  2.23799888E+00  0.00000000E+00 -1.77992360E+00  2.23799888E+00
  0.00000000E+00 -1.77992360E+00  2.23799888E+00  0.00000000E+00
Constraint Structure                       R   N=          12
  9.74021541E-02  1.32997036E+00  0.00000000E+00  1.12128979E+00  2.01173819E+00
  1.66375268E+00  1.12128979E+00  2.01173819E+00 -1.66375268E+00 -1.77992360E+00
  2.23799888E+00  0.00000000E+00
Num ILSW                                   I              100
ILSW                                       I   N=         100
           1           1           0           0           2           0
           0           0           0           0         402          -1
           0           0           0           0           0           0
           0           0           1           0           0           0
           1           1           0           0           0           0
           0           0      100000           0          -1           0
           0           0           0           0           0           0
           0           0           0           1           0           0
           0           0           1           0           0           0
           0           0           4          41           0           0
           0           0           5           0           0           0
           0           0           0           0           0           0
           0           0           0           0           0           0
           0           0           0           0           0           0
           0           0           0           0           0           0
           0           0           0           0           0           0
           0           0           0           0
Num RLSW                                   I               41
RLSW                                       R   N=          41
  8.00000000E-01  7.20000000E-01  1.00000000E+00  8.10000000E-01  2.00000000E-01
  0.00000000E+00  0.00000000E+00  1.00000000E+00  0.00000000E+00  0.00000000E+00
  0.00000000E+00  0.00000000E+00  1.00000000E+00  0.00000000E+00  0.00000000E+00
  0.00000000E+00  0.00000000E+00  1.00000000E+00  0.00000000E+00  0.00000000E+00
  0.00000000E+00  0.00000000E+00  1.00000000E+00  0.00000000E+00  0.00000000E+00
  0.00000000E+00  0.00000000E+00  1.00000000E+00  0.00000000E+00  0.00000000E+00
  0.00000000E+00  0.00000000E+00  1.00000000E+00  0.00000000E+00  0.00000000E+00
  0.00000000E+00  0.00000000E+00  0.00000000E+00  1.00000000E+00  1.00000000E+00
  0.00000000E+00
MxBond                                     I                3
NBond                                      I   N=           4
           3           1           1           1
IBond                                      I   N=          12
           2           3           4           1           0           0
           1           0           0           1           0           0
RBond                                      R   N=          12
  1.00000000E+00  1.00000000E+00  1.00000000E+00  1.00000000E+00  0.00000000E+00
  0.00000000E+00  1.00000000E+00  0.00000000E+00  0.00000000E+00  1.00000000E+00
  0.00000000E+00  0.00000000E+00
Virial Ratio                               R      2.010423753109726E+00
SCF Energy                                 R     -3.982899960000575E+01
Total Energy                               R     -3.982899960000575E+01
S**2                                       R      7.523448871826139E-01
S**2 after annihilation                    R      7.500040016520010E-01
RMS Density                                R      2.511999548661348E-09
External E-field                           R   N=          35
  0.00000000E+00  0.00000000E+00  0.00000000E+00  0.00000000E+00  0.00000000E+00
  0.00000000E+00  0.00000000E+00  0.00000000E+00  0.00000000E+00  0.00000000E+00
  0.00000000E+00  0.00000000E+00  0.00000000E+00  0.00000000E+00  0.00000000E+00
  0.00000000E+00  0.00000000E+00  0.00000000E+00  0.00000000E+00  0.00000000E+00
  0.00000000E+00  0.00000000E+00  0.00000000E+00  0.00000000E+00  0.00000000E+00
  0.00000000E+00  0.00000000E+00  0.00000000E+00  0.00000000E+00  0.00000000E+00
  0.00000000E+00  0.00000000E+00  0.00000000E+00  0.00000000E+00  0.00000000E+00
IOpCl                                      I                1
IROHF                                      I                0
Alpha Orbital Energies                     R   N=          30
 -1.02044258E+01 -6.88340599E-01 -3.98790172E-01 -3.98753109E-01 -2.64559570E-01
  1.19099186E-01  1.67360117E-01  1.68724294E-01  5.27258145E-01  5.29621503E-01
  5.30635789E-01  8.33304097E-01  8.56441228E-01  8.58536437E-01  9.50168631E-01
  1.39380192E+00  1.39557673E+00  1.71000956E+00  2.04412053E+00  2.04626054E+00
  2.05814180E+00  2.26645174E+00  2.26713916E+00  2.61811610E+00  2.78671199E+00
  2.79514663E+00  3.12678433E+00  3.39347006E+00  3.40544814E+00  4.24695330E+00
Beta Orbital Energies                      R   N=          30
 -1.01894042E+01 -6.53696630E-01 -3.86843190E-01 -3.86834606E-01 -7.90478213E-02
  1.27282011E-01  1.80681246E-01  1.81949987E-01  5.36385232E-01  5.38971524E-01
  6.08466520E-01  8.50032855E-01  8.69081505E-01  8.71147239E-01  9.71432071E-01
  1.42562251E+00  1.42757509E+00  1.78128818E+00  2.04364995E+00  2.06032475E+00
  2.07160051E+00  2.28760487E+00  2.28836377E+00  2.64228787E+00  2.80248876E+00
  2.81078881E+00  3.13639584E+00  3.40852945E+00  3.42054439E+00  4.28924003E+00
Alpha MO coefficients                      R   N=         900
  9.92616766E-01  5.00094757E-02  3.63365138E-05  3.19471814E-04  3.59326825E-17
 -1.18750930E-02 -1.58369709E-04 -1.62167140E-03  9.60257574E-16 -9.81838317E-03
 -9.48229290E-03 -9.81766379E-03  3.30726560E-05  2.35269839E-16  1.63203455E-16
 -2.35944238E-04  2.51149162E-03  5.34098274E-05  1.09726075E-04  7.78854732E-05
 -2.35944238E-04  2.51149162E-03  5.34098274E-05  1.09726075E-04 -7.78854732E-05
 -2.29610353E-04  2.45816388E-03 -8.72904694E-05  1.25202638E-04 -4.75184471E-17
 -2.01654065E-01  4.02427863E-01  7.64309710E-03  6.54244875E-02 -9.40087708E-16
  3.80302773E-01  2.40947281E-03  2.41584124E-02  5.45990953E-15 -1.08179751E-02
 -5.13575833E-03 -1.08686129E-02  6.39324748E-04  3.08406116E-16  1.54758508E-16
  1.50962645E-01  4.71571158E-02 -6.77728632E-03 -2.75546535E-03 -1.13856816E-02
  1.50962645E-01  4.71571158E-02 -6.77728632E-03 -2.75546535E-03  1.13856816E-02
  1.47840390E-01  4.65109832E-02  1.27222425E-02 -4.20046369E-03 -1.29307099E-16
 -6.95290729E-15  1.11172456E-14 -2.82945981E-12  2.06188713E-13  4.57487243E-01
  3.76748275E-14 -1.18183573E-12  8.77540710E-14  1.89935746E-01  8.03600368E-14
  1.38983392E-14 -9.67002928E-14 -1.06720484E-13  1.92945743E-02  1.45842542E-02
  2.40629479E-01  2.16058447E-01 -6.80926281E-03 -2.50747787E-03 -2.27562399E-03
 -2.40629479E-01 -2.16058447E-01  6.80926281E-03  2.50747787E-03 -2.27562399E-03
  1.72902825E-12  1.55141842E-12  3.74416386E-14 -2.48020326E-14  8.98394184E-03
  1.01898946E-03 -1.93998047E-03  4.54941035E-01 -3.32543025E-02  2.84543940E-12
 -4.86037887E-03  1.89696458E-01 -1.40257372E-02  1.18484216E-12 -1.29483168E-02
 -2.25779765E-03  1.53753164E-02  1.71361055E-02  1.19929120E-13  9.07779446E-14
  1.38472868E-01  1.24073229E-01  5.09305546E-03 -2.10030571E-03 -6.60171169E-03
  1.38472868E-01  1.24073229E-01  5.09305546E-03 -2.10030571E-03  6.60171169E-03
 -2.78002362E-01 -2.50163975E-01 -6.02472171E-03  3.99556094E-03  5.59808411E-14
  6.71671046E-02 -1.49279094E-01  4.25183162E-02  5.64966882E-01  1.03125764E-15
 -3.03241289E-01  3.29580174E-02  4.38672738E-01  2.09319310E-15  9.71237659E-03
  1.99082035E-03  9.61819775E-03 -4.87687716E-04  4.09850580E-16  4.23637480E-17
  6.66289944E-02  6.63192258E-02 -5.35414029E-04  1.17006025E-02 -2.46901066E-03
  6.66289944E-02  6.63192258E-02 -5.35414029E-04  1.17006025E-02  2.46901066E-03
  6.78862012E-02  6.83494442E-02  3.72791240E-03  1.12589798E-02 -2.13162751E-17
 -1.44253959E-01  2.02819623E-01  1.63794815E-03  1.70172860E-01 -1.83784673E-14
  2.24862438E+00  2.58533275E-02  6.45873649E-01 -8.09886832E-14 -1.82622604E-02
 -4.14046062E-03 -1.74283007E-02  1.71648182E-03  5.12958017E-16  4.23147047E-16
 -3.17136795E-02 -1.14247214E+00 -3.01160526E-03 -6.21649412E-05 -4.33414482E-03
 -3.17136795E-02 -1.14247214E+00 -3.01160526E-03 -6.21649412E-05  4.33414482E-03
 -3.86698727E-02 -1.18758489E+00  5.30253869E-03 -9.88761631E-04 -3.78069455E-16
 -3.53816789E-03  4.23998386E-03  4.11034860E-01 -2.83511485E-02 -5.59885873E-13
  7.99080141E-02  1.25704103E+00 -7.56439079E-02 -1.74817712E-12  1.39865158E-02
  1.23323241E-03 -1.60231625E-02 -1.27485285E-02  2.52277406E-14  1.34971272E-14
 -6.00307267E-02 -8.84028245E-01  7.88630291E-03 -4.29007361E-03 -6.35279680E-03
 -6.00307267E-02 -8.84028245E-01  7.88630291E-03 -4.29007361E-03  6.35279680E-03
  1.23143501E-01  1.65213529E+00 -2.22157224E-03  7.30105563E-03 -1.65183373E-14
  1.20209711E-14 -4.67584815E-14 -5.67169541E-13  3.13009828E-14 -4.10071303E-01
 -1.66761610E-13 -1.72572355E-12  7.94169703E-14 -1.26351657E+00 -1.77713914E-14
 -7.73128901E-16  2.21702560E-14  1.77383250E-14  1.90356970E-02  1.01379194E-02
  1.05908634E-01  1.47612940E+00  6.74567433E-03  5.61821186E-03 -9.38416642E-04
 -1.05908634E-01 -1.47612940E+00 -6.74567433E-03 -5.61821186E-03 -9.38416642E-04
 -1.71418006E-13 -2.22136330E-12  2.59656029E-15 -9.91022669E-15 -1.19121706E-02
 -6.47347888E-16  2.16593979E-14 -1.11818446E-13  4.96930399E-14 -7.37660989E-01
 -4.25110214E-14  2.39640899E-13 -6.46651759E-14  1.46532784E+00  9.92275642E-15
  3.13186118E-15 -1.01117109E-14 -9.66349585E-15 -6.78083163E-02 -3.90574362E-02
 -3.98421920E-01 -2.18785618E-01  8.33996244E-03  5.50699017E-03  3.43211512E-02
  3.98421920E-01  2.18785618E-01 -8.33996244E-03 -5.50699017E-03  3.43211512E-02
  8.57535517E-14  4.61003122E-14  7.85958180E-15 -1.39399632E-15  2.20507650E-02
 -1.06933199E-02  8.45240894E-02 -7.11988326E-01 -3.36514894E-01  1.06930457E-13
  4.86623702E-02  1.39410830E+00  3.56548150E-01 -2.10619073E-13  5.32678152E-02
  1.86576660E-02 -4.43855016E-02 -4.49447633E-02  9.81995541E-15  5.66826266E-15
 -2.31621845E-01 -1.81665026E-01  2.80529251E-02  8.83026036E-04  1.38215853E-02
 -2.31621845E-01 -1.81665026E-01  2.80529251E-02  8.83026036E-04 -1.38215853E-02
  4.04715474E-01  1.82727150E-01  2.96997657E-02 -8.79062986E-03 -3.55285708E-15
 -2.42955360E-02  2.05842894E-01  2.13707685E-01 -9.59341503E-01 -7.65728221E-14
  6.55952118E-02 -4.81524658E-01  1.13669400E+00  1.42932606E-13 -2.53822758E-03
  2.77091259E-02  3.84104907E-02  2.01274452E-02 -6.50325690E-15 -3.34546356E-15
  4.26528237E-02 -7.44431556E-02 -1.00582975E-03 -1.80687905E-03  1.28474291E-02
  4.26528237E-02 -7.44431556E-02 -1.00582975E-03 -1.80687905E-03 -1.28474291E-02
 -2.20705151E-01 -2.26558706E-01 -3.35046939E-02  5.51177234E-03  2.18197468E-15
 -9.38463515E-02 -4.22795992E-01 -5.41302575E-02  1.18531345E-01  1.32176355E-13
  1.40457883E+00  1.49946764E-01  3.37746577E-01 -2.14912896E-13 -1.99736558E-01
  1.36730219E-01 -1.73177250E-01  4.03943485E-02 -3.51573938E-14 -2.24235844E-14
 -6.45966030E-01 -6.53030215E-02 -3.24417730E-02  4.57497380E-02 -5.40359050E-02
 -6.45966030E-01 -6.53030215E-02 -3.24417730E-02  4.57497380E-02  5.40359050E-02
 -7.55677517E-01  1.80662802E-01  7.57638301E-02  3.25044253E-02  8.73255947E-15
  8.66577192E-03  8.71553466E-02 -7.49055255E-01  5.27086163E-02 -3.33260805E-14
 -2.31130741E-01  1.26469246E+00 -1.48593326E-01  5.95426657E-14 -1.27256180E-01
 -3.18939960E-02  1.87423401E-01  1.58059607E-01  3.09956424E-15  2.71146554E-15
  4.58207477E-01 -8.13164336E-01 -1.34286681E-02  2.27220188E-02  6.20371099E-02
  4.58207477E-01 -8.13164336E-01 -1.34286681E-02  2.27220188E-02 -6.20371099E-02
 -7.52807193E-01  1.71986642E+00  6.92848283E-02 -6.18027292E-02  4.52373305E-16
  1.62852998E-14 -3.03893721E-14 -1.48813544E-14 -3.51887959E-14  7.56920472E-01
 -1.96973388E-14  1.57110333E-14 -1.26131564E-14 -1.28522264E+00  3.07738193E-14
 -2.46041272E-14  3.56513376E-14 -1.87083364E-15 -2.07862890E-01 -1.33698081E-01
 -6.99450083E-01  1.47764203E+00 -6.14976356E-02 -4.15381146E-02 -4.87234060E-02
  6.99450083E-01 -1.47764203E+00  6.14976356E-02  4.15381146E-02 -4.87234060E-02
  1.12670981E-13 -4.56734595E-14 -1.41040080E-14 -5.85280685E-15  5.03805144E-02
 -6.40245795E-03 -1.91786861E+00 -4.09705182E-02 -2.62108947E-01 -4.75978596E-14
  4.33714939E+00  1.12482330E-01  8.61743279E-01  1.03235496E-13 -7.19875203E-02
 -6.00179854E-02 -6.05662779E-02  5.78932118E-03  6.72720043E-15  7.03663056E-15
  2.15073191E-01 -1.32799660E+00  3.19097286E-02  4.11368122E-02  5.29036071E-02
  2.15073191E-01 -1.32799660E+00  3.19097286E-02  4.11368122E-02 -5.29036071E-02
  1.82265200E-01 -1.24137119E+00 -5.28187406E-02  4.60779663E-02  3.26706205E-16
  1.81008059E-05 -2.97682264E-03 -1.68665878E-02 -1.30838573E-03  1.60734255E-14
  5.60420259E-03 -1.07165632E-01  9.24709191E-03  1.27005850E-13  4.42617236E-01
 -6.73056564E-02 -3.75161291E-01  5.22982832E-01  4.46683433E-13 -6.90194833E-13
  2.35850070E-02  1.19989421E-02  1.83614753E-01  1.22251515E-01 -1.57618435E-01
  2.35850070E-02  1.19989421E-02  1.83614753E-01  1.22251515E-01  1.57618435E-01
 -4.72702548E-02 -2.88752202E-02 -1.15796368E-01 -2.59048478E-01 -3.05938561E-13
 -2.76227239E-16  2.83491595E-15 -1.86762542E-14 -8.95177274E-16 -1.40137170E-02
 -5.01150413E-15 -1.26717791E-13  9.47708189E-15 -1.09341729E-01  5.15645537E-13
 -8.27912528E-14 -4.34160595E-13  6.05894324E-13 -3.85144062E-01  5.95217852E-01
  3.99376778E-02  2.59911354E-02 -1.37381903E-01  2.44532099E-01 -6.64277927E-03
 -3.99376778E-02 -2.59911354E-02  1.37381903E-01 -2.44532099E-01 -6.64277927E-03
 -5.61232489E-14 -3.23260080E-14 -1.33737314E-13 -3.01631435E-13  2.63772363E-01
 -5.62490813E-02 -4.89710391E-01  2.50505707E-03 -5.25634346E-03 -1.08043905E-15
  1.51835080E+00  4.15673569E-02  5.28689190E-01  6.76492848E-15  3.47479027E-01
 -8.53606733E-01  3.39607233E-01 -1.08025745E-01  1.25353200E-15 -5.90232901E-15
 -3.35093097E-01 -2.99297550E-01 -1.22742355E-02 -2.30031082E-01  7.45640674E-04
 -3.35093097E-01 -2.99297550E-01 -1.22742355E-02 -2.30031082E-01 -7.45640674E-04
 -3.43063414E-01 -2.86960761E-01 -1.54276343E-02 -2.32159675E-01 -8.66415164E-16
  4.28217601E-16 -3.01097450E-15 -5.67237127E-15  1.50059575E-15  2.63204140E-02
 -1.56945050E-15  2.57736573E-14 -3.21771099E-15 -1.07723837E-01 -1.46424981E-14
 -4.46117550E-16  1.87698370E-14  2.26412073E-14 -1.17255796E-01 -7.59135660E-02
  9.94503773E-02 -1.61232953E-02  4.99854978E-01 -6.70933264E-02 -2.06505341E-01
 -9.94503773E-02  1.61232953E-02 -4.99854978E-01  6.70933264E-02 -2.06505341E-01
  2.61382233E-14 -2.71920274E-15 -2.00626334E-14 -3.39110801E-15  6.27442461E-01
 -2.32322707E-03 -5.34718354E-03 -1.17279703E-01  9.44700167E-03 -1.57659471E-14
  3.77361936E-02  4.89354762E-01 -2.52227414E-02  6.98661421E-14 -3.89701690E-01
 -6.96342876E-02  4.53845543E-01  4.35778236E-01  7.90867840E-14  5.32339819E-14
 -2.78607550E-01  4.53930090E-02 -2.93650691E-01  9.31593555E-02 -6.34855740E-02
 -2.78607550E-01  4.53930090E-02 -2.93650691E-01  9.31593555E-02  6.34855740E-02
  5.34638625E-01 -1.17692822E-01 -4.27158834E-01 -1.17829596E-01 -4.95982645E-14
  5.33058289E-16 -1.62725454E-14  1.53113018E-14 -3.64494676E-15 -1.11279633E-01
  2.76905739E-14 -6.11351691E-14  1.21834976E-14  4.76407375E-01  5.64459869E-14
  9.89108874E-15 -6.05898062E-14 -6.21900357E-14  5.37388497E-01  3.49574932E-01
 -4.60110229E-01  9.46353608E-02  5.19640298E-02  1.21107914E-01 -4.32949327E-01
  4.60110229E-01 -9.46353608E-02 -5.19640298E-02 -1.21107914E-01 -4.32949327E-01
 -7.84946339E-14  1.64675753E-14  5.83666500E-14  1.12305150E-14 -1.38223678E-01
 -8.03199407E-04  3.71916816E-03 -1.15161437E-01  1.15323475E-02  5.88838033E-14
 -1.16890332E-03 -2.54128587E-01  1.59712593E-02  1.31243814E-13 -1.16296110E-01
 -7.21245153E-02  1.84680417E-01  4.82175600E-01 -1.28050756E-13 -2.30108654E-13
 -8.38528896E-02  1.47203025E-01  2.74343746E-01 -3.52501658E-01 -1.23923003E-01
 -8.38528896E-02  1.47203025E-01  2.74343746E-01 -3.52501658E-01  1.23923003E-01
  1.62332521E-01 -2.90968207E-01  1.43195368E-01  6.69873135E-01 -1.95919024E-13
  5.05091316E-16 -4.44480795E-16  5.88157881E-14 -6.34962640E-15  1.13671613E-01
 -1.54326245E-15  1.28031611E-13 -1.05641830E-14  2.52501083E-01  6.04692365E-14
  3.57960718E-14 -9.40995832E-14 -2.47883451E-13 -2.53055632E-01 -4.56639990E-01
  1.47396025E-01 -2.54413249E-01  1.69144430E-01  5.67369929E-01 -1.62855832E-01
 -1.47396025E-01  2.54413249E-01 -1.69144430E-01 -5.67369929E-01 -1.62855832E-01
 -8.35908726E-14  1.49014351E-13 -7.23071774E-14 -3.37661764E-13 -3.75751611E-01
 -1.52637754E-03 -2.04333953E-01  5.27826570E-03  1.24072252E-01  1.19356545E-15
  5.05627249E-01  2.27970382E-02  4.10176289E-01  3.72968290E-15 -2.48893831E-01
  6.52286892E-01 -2.41726628E-01  8.07164452E-02 -4.20463598E-15 -1.40124467E-15
 -1.87901149E-02 -1.78996061E-01  1.07196097E-01 -5.55123249E-01  2.31027702E-01
 -1.87901149E-02 -1.78996061E-01  1.07196097E-01 -5.55123249E-01 -2.31027702E-01
 -1.84556052E-02 -1.88595082E-01 -3.18070237E-01 -5.13926399E-01 -4.83200748E-15
 -4.07327738E-16  3.93965451E-15  9.22848902E-16  3.01900779E-15 -4.09751330E-02
  8.61609255E-16 -9.84549972E-15  1.68319426E-15 -3.38240063E-01 -1.63040074E-14
  2.45776128E-15  1.94080857E-14 -8.75264296E-15  6.04243469E-01 -5.59237740E-01
 -5.08015766E-03  1.86233657E-01 -3.68299558E-01  3.26444438E-01  6.53388211E-02
  5.08015766E-03 -1.86233657E-01  3.68299558E-01 -3.26444438E-01  6.53388211E-02
  2.29129878E-15 -9.54655553E-15 -7.96783416E-15 -5.94755610E-15  7.37147499E-01
  4.67565586E-04 -8.70824665E-03  4.39962011E-02 -3.95799974E-03 -2.56712115E-16
  5.60132811E-03  3.40827794E-01 -2.02329939E-02 -6.63553444E-15  6.22667460E-01
 -5.13415940E-02 -5.72528128E-01  4.53475701E-01  1.75602938E-14 -1.33270942E-14
  2.33488600E-03 -1.07109841E-01 -5.32815953E-01 -1.38162271E-01  3.91221743E-01
  2.33488600E-03 -1.07109841E-01 -5.32815953E-01 -1.38162271E-01 -3.91221743E-01
 -3.74563868E-03  2.13233433E-01  1.84133155E-01  3.11502446E-01  1.62486165E-14
 -1.39965579E-01  8.41161779E-01  2.00143673E-02  4.32605632E-01 -1.37793272E-14
  1.22379783E+00  3.36744321E-03  2.49699303E-01 -4.82338267E-15  1.34844968E-01
 -5.50110954E-01  7.44946283E-02 -7.78704827E-02 -1.67797730E-14 -5.33293251E-15
 -3.25415798E-01 -4.15140260E-01  3.59475977E-01  2.50526415E-01  5.94149854E-01
 -3.25415798E-01 -4.15140260E-01  3.59475977E-01  2.50526415E-01 -5.94149854E-01
 -3.49481314E-01 -4.35777070E-01 -7.01835242E-01  3.51657726E-01 -3.65862544E-15
 -2.83586541E-03  4.21030566E-02  8.76606337E-01 -4.34462172E-02  6.53609986E-14
  3.48045500E-02  5.68387284E-01 -3.56476507E-02  4.11566706E-14 -6.71767446E-01
 -1.15595046E-01  7.89853458E-01  7.93574124E-01  6.76573780E-14  4.79471952E-14
 -3.94334561E-01 -2.82690548E-01  2.74898371E-01  1.98098205E-01  4.94714685E-01
 -3.94334561E-01 -2.82690548E-01  2.74898371E-01  1.98098205E-01 -4.94714685E-01
  7.26323112E-01  5.27973517E-01  1.00091798E+00 -4.86477848E-01 -3.44583538E-15
 -5.64501302E-16  1.30092070E-14 -6.40825272E-14  9.55710730E-15  8.95255363E-01
 -7.95972180E-15 -3.44348045E-14  2.08645499E-15  5.64543013E-01  5.16444228E-14
  4.18534232E-15 -4.90025171E-14 -5.84250481E-14  9.71663870E-01  6.64462667E-01
 -6.63491256E-01 -4.67334257E-01  5.06262417E-01  3.30441317E-01  7.91539678E-01
  6.63491256E-01  4.67334257E-01 -5.06262417E-01 -3.30441317E-01  7.91539678E-01
 -5.90565675E-14 -2.97583912E-14 -8.21446813E-14  4.02670723E-14 -2.73606405E-02
 -4.57864136E-01  2.92616264E+00 -2.73685003E-02 -2.52819758E-01  2.67927683E-15
  1.65050657E+00  2.13132794E-02  2.14604007E-01 -5.85768149E-15 -2.05533984E+00
 -1.77424935E+00 -2.05636662E+00  2.16663417E-02  2.10055592E-15 -5.78864878E-16
  2.86877636E-01 -3.55821896E-01 -1.57034942E-01 -1.39723233E-01 -2.52999004E-01
  2.86877636E-01 -3.55821896E-01 -1.57034942E-01 -1.39723233E-01  2.52999004E-01
  2.75618595E-01 -3.45838176E-01  2.78120720E-01 -1.72957220E-01  1.57255902E-15
Beta MO coefficients                       R   N=         900
  9.93080638E-01  4.70636978E-02  8.89415562E-05  9.85351525E-04  1.78355918E-17
 -1.18699888E-02 -1.68274304E-04 -1.76111583E-03  7.71705515E-16 -8.41889045E-03
 -9.36255058E-03 -8.41041654E-03 -7.98612866E-05  9.75589145E-17  5.69003629E-17
 -3.80559498E-04  2.51905226E-03  1.02549593E-04  1.89154050E-04  1.52097411E-04
 -3.80559498E-04  2.51905226E-03  1.02549593E-04  1.89154050E-04 -1.52097411E-04
 -3.70346157E-04  2.46492584E-03 -1.67751470E-04  2.13964342E-04 -3.44663922E-17
 -1.92547863E-01  3.78534841E-01  1.09897836E-02  1.06278427E-01  2.32206472E-16
  3.30844725E-01  2.82960073E-03  3.13242370E-02  4.56537298E-15 -1.93875877E-03
 -2.34113466E-02 -1.82918175E-03 -1.70593460E-03  3.71900000E-16 -2.08782392E-18
  1.62498477E-01  6.69177567E-02 -6.85370492E-03 -3.70705233E-03 -1.14108361E-02
  1.62498477E-01  6.69177567E-02 -6.85370492E-03 -3.70705233E-03  1.14108361E-02
  1.59076064E-01  6.58050853E-02  1.26927487E-02 -5.15226163E-03 -9.70734836E-18
  9.28800013E-04 -1.67952688E-03  4.37077388E-01 -3.32474244E-02  4.03953646E-12
 -4.25327863E-03  1.72760157E-01 -1.34235850E-02  1.59193722E-12 -1.20523744E-02
 -3.16525548E-03  1.53772671E-02  2.51816695E-02  1.83756062E-13  2.08996093E-13
  1.42354619E-01  1.36233259E-01  5.62276868E-03 -3.47926069E-03 -6.22238950E-03
  1.42354619E-01  1.36233259E-01  5.62276868E-03 -3.47926069E-03  6.22238950E-03
 -2.86678121E-01 -2.75458650E-01 -4.61741020E-03  6.51011346E-03  8.62021511E-14
 -8.62743948E-15  1.31385005E-14 -4.01497419E-12  3.05327620E-13  4.39727550E-01
  4.34659497E-14 -1.58909403E-12  1.23795883E-13  1.73028779E-01  1.10817297E-13
  2.90418424E-14 -1.42423015E-13 -2.31549453E-13  2.00039801E-02  2.27179592E-02
  2.47886630E-01  2.37762755E-01 -6.61409771E-03 -4.81394892E-03 -1.22353276E-03
 -2.47886630E-01 -2.37762755E-01  6.61409771E-03  4.81394892E-03 -1.22353276E-03
  2.63328117E-12  2.52628626E-12  4.22767912E-14 -5.96478167E-14  9.39881499E-03
  7.88162234E-02 -1.40149727E-01  3.57122622E-02  4.61753856E-01  7.91054134E-16
 -3.86564251E-01  4.05276156E-02  5.23247087E-01  2.90809147E-15 -1.62887389E-03
  3.09939123E-02 -1.90978807E-03  3.09100968E-03  5.81210383E-17 -1.54410847E-16
  5.74370958E-02  7.51385531E-02 -2.99132526E-04  1.46780611E-02 -2.49396796E-03
  5.74370958E-02  7.51385531E-02 -2.99132526E-04  1.46780611E-02  2.49396796E-03
  5.81627067E-02  7.76384819E-02  3.93679147E-03  1.42779000E-02 -2.75051291E-17
 -1.46363055E-01  1.90478910E-01  3.41437223E-03  1.73494144E-01 -1.45379333E-14
  2.28933154E+00  3.11271901E-02  6.59266672E-01 -7.19510673E-14 -1.28829623E-02
 -1.65209134E-02 -1.20965664E-02 -2.68361068E-04  2.89408361E-16 -3.85961107E-16
 -2.20997223E-02 -1.15789319E+00 -3.27945732E-03  2.29721815E-04 -4.83359307E-03
 -2.20997223E-02 -1.15789319E+00 -3.27945732E-03  2.29721815E-04  4.83359307E-03
 -2.77471774E-02 -1.19384147E+00  5.88933494E-03 -7.07576365E-04 -1.14994730E-16
 -3.03758406E-03  3.22251441E-03  4.12814627E-01 -2.90800075E-02 -4.68374280E-13
  7.21840214E-02  1.27423001E+00 -7.98114043E-02 -1.47474924E-12  1.45028873E-02
 -1.15340996E-03 -1.39881975E-02  3.29120761E-03  1.71569779E-14 -6.64782414E-15
 -5.05576304E-02 -8.88935594E-01  9.28113718E-03 -4.06048434E-03 -7.14031704E-03
 -5.05576304E-02 -8.88935594E-01  9.28113718E-03 -4.06048434E-03  7.14031704E-03
  1.05228834E-01  1.67438329E+00 -2.40397973E-03  6.59720613E-03 -1.55053567E-14