CH3NH2 for CDA                                                          
SP        RB3LYP                                                      6-31G(d,p)          
Number of atoms                            I                7
Info1-9                                    I   N=           9
          15          14           0           0           0         110
           1          18        -502
Charge                                     I                0
Multiplicity                               I                1
Number of electrons                        I               18
Number of alpha electrons                  I                9
Number of beta electrons                   I                9
Number of basis functions                  I               55
Number of independent functions            I               55
Number of point charges in /Mol/           I                0
Number of translation vectors              I                0
Atomic numbers                             I   N=           7
           6           1           1           1           7           1
           1
Nuclear charges                            R   N=           7
  6.00000000E+00  1.00000000E+00  1.00000000E+00  1.00000000E+00  7.00000000E+00
  1.00000000E+00  1.00000000E+00
Current cartesian coordinates              R   N=          21
  9.74021541E-02  1.32997036E+00  0.00000000E+00  1.12128979E+00  2.01173819E+00
  1.66375268E+00  1.12128979E+00  2.01173819E+00 -1.66375268E+00 -1.77992360E+00
  2.23799888E+00  0.00000000E+00  9.74021541E-02 -1.43840473E+00  0.00000000E+00
 -8.64445771E-01 -2.08623308E+00  1.53338048E+00 -8.64445771E-01 -2.08623308E+00
 -1.53338048E+00
Force Field                                I                0
Int Atom Types                             I   N=           7
           0           0           0           0           0           0
           0
MM charges                                 R   N=           7
  0.00000000E+00  0.00000000E+00  0.00000000E+00  0.00000000E+00  0.00000000E+00
  0.00000000E+00  0.00000000E+00
Integer atomic weights                     I   N=           7
          12           1           1           1          14           1
           1
Real atomic weights                        R   N=           7
  1.20000000E+01  1.00782504E+00  1.00782504E+00  1.00782504E+00  1.40030740E+01
  1.00782504E+00  1.00782504E+00
Atom fragment info                         I   N=           7
           0           0           0           0           0           0
           0
Atom residue num                           I   N=           7
           0           0           0           0           0           0
           0
Nuclear spins                              I   N=           7
           0           1           1           1           2           1
           1
Nuclear ZEff                               R   N=           7
 -3.60000000E+00 -1.00000000E+00 -1.00000000E+00 -1.00000000E+00 -4.55000000E+00
 -1.00000000E+00 -1.00000000E+00
Nuclear ZNuc                               R   N=           7
  6.00000000E+00  1.00000000E+00  1.00000000E+00  1.00000000E+00  7.00000000E+00
  1.00000000E+00  1.00000000E+00
Nuclear QMom                               R   N=           7
  0.00000000E+00  0.00000000E+00  0.00000000E+00  0.00000000E+00  2.04400000E+00
  0.00000000E+00  0.00000000E+00
Nuclear GFac                               R   N=           7
  0.00000000E+00  2.79284600E+00  2.79284600E+00  2.79284600E+00  4.03761000E-01
  2.79284600E+00  2.79284600E+00
MicOpt                                     I   N=           7
          -1          -1          -1          -1          -1          -1
          -1
Number of contracted shells                I               23
Number of primitive shells                 I               47
Pure/Cartesian d shells                    I                1
Pure/Cartesian f shells                    I                0
Highest angular momentum                   I                2
Largest degree of contraction              I                6
Shell types                                I   N=          23
           0          -1          -1           2           0           0
           1           0           0           1           0           0
           1           0          -1          -1           2           0
           0           1           0           0           1
Number of primitives per shell             I   N=          23
           6           3           1           1           3           1
           1           3           1           1           3           1
           1           6           3           1           1           3
           1           1           3           1           1
Shell to atom map                          I   N=          23
           1           1           1           1           2           2
           2           3           3           3           4           4
           4           5           5           5           5           6
           6           6           7           7           7
Primitive exponents                        R   N=          47
  3.04752488E+03  4.57369518E+02  1.03948685E+02  2.92101553E+01  9.28666296E+00
  3.16392696E+00  7.86827235E+00  1.88128854E+00  5.44249258E-01  1.68714478E-01
  8.00000000E-01  1.87311370E+01  2.82539436E+00  6.40121692E-01  1.61277759E-01
  1.10000000E+00  1.87311370E+01  2.82539436E+00  6.40121692E-01  1.61277759E-01
  1.10000000E+00  1.87311370E+01  2.82539436E+00  6.40121692E-01  1.61277759E-01
  1.10000000E+00  4.17351146E+03  6.27457911E+02  1.42902093E+02  4.02343293E+01
  1.28202129E+01  4.39043701E+00  1.16263619E+01  2.71627981E+00  7.72218397E-01
  2.12031498E-01  8.00000000E-01  1.87311370E+01  2.82539436E+00  6.40121692E-01
  1.61277759E-01  1.10000000E+00  1.87311370E+01  2.82539436E+00  6.40121692E-01
  1.61277759E-01  1.10000000E+00
Contraction coefficients                   R   N=          47
  1.83473713E-03  1.40373228E-02  6.88426223E-02  2.32184443E-01  4.67941348E-01
  3.62311985E-01 -1.19332420E-01 -1.60854152E-01  1.14345644E+00  1.00000000E+00
  1.00000000E+00  3.34946043E-02  2.34726953E-01  8.13757326E-01  1.00000000E+00
  1.00000000E+00  3.34946043E-02  2.34726953E-01  8.13757326E-01  1.00000000E+00
  1.00000000E+00  3.34946043E-02  2.34726953E-01  8.13757326E-01  1.00000000E+00
  1.00000000E+00  1.83477216E-03  1.39946270E-02  6.85865518E-02  2.32240873E-01
  4.69069948E-01  3.60455199E-01 -1.14961182E-01 -1.69117479E-01  1.14585195E+00
  1.00000000E+00  1.00000000E+00  3.34946043E-02  2.34726953E-01  8.13757326E-01
  1.00000000E+00  1.00000000E+00  3.34946043E-02  2.34726953E-01  8.13757326E-01
  1.00000000E+00  1.00000000E+00
P(S=P) Contraction coefficients            R   N=          47
  0.00000000E+00  0.00000000E+00  0.00000000E+00  0.00000000E+00  0.00000000E+00
  0.00000000E+00  6.89990666E-02  3.16423961E-01  7.44308291E-01  1.00000000E+00
  0.00000000E+00  0.00000000E+00  0.00000000E+00  0.00000000E+00  0.00000000E+00
  0.00000000E+00  0.00000000E+00  0.00000000E+00  0.00000000E+00  0.00000000E+00
  0.00000000E+00  0.00000000E+00  0.00000000E+00  0.00000000E+00  0.00000000E+00
  0.00000000E+00  0.00000000E+00  0.00000000E+00  0.00000000E+00  0.00000000E+00
  0.00000000E+00  0.00000000E+00  6.75797439E-02  3.23907296E-01  7.40895140E-01
  1.00000000E+00  0.00000000E+00  0.00000000E+00  0.00000000E+00  0.00000000E+00
  0.00000000E+00  0.00000000E+00  0.00000000E+00  0.00000000E+00  0.00000000E+00
  0.00000000E+00  0.00000000E+00
Coordinates of each shell                  R   N=          69
  9.74021541E-02  1.32997036E+00  0.00000000E+00  9.74021541E-02  1.32997036E+00
  0.00000000E+00  9.74021541E-02  1.32997036E+00  0.00000000E+00  9.74021541E-02
  1.32997036E+00  0.00000000E+00  1.12128979E+00  2.01173819E+00  1.66375268E+00
  1.12128979E+00  2.01173819E+00  1.66375268E+00  1.12128979E+00  2.01173819E+00
  1.66375268E+00  1.12128979E+00  2.01173819E+00 -1.66375268E+00  1.12128979E+00
  2.01173819E+00 -1.66375268E+00  1.12128979E+00  2.01173819E+00 -1.66375268E+00
 -1.77992360E+00  2.23799888E+00  0.00000000E+00 -1.77992360E+00  2.23799888E+00
  0.00000000E+00 -1.77992360E+00  2.23799888E+00  0.00000000E+00  9.74021541E-02
 -1.43840473E+00  0.00000000E+00  9.74021541E-02 -1.43840473E+00  0.00000000E+00
  9.74021541E-02 -1.43840473E+00  0.00000000E+00  9.74021541E-02 -1.43840473E+00
  0.00000000E+00 -8.64445771E-01 -2.08623308E+00  1.53338048E+00 -8.64445771E-01
 -2.08623308E+00  1.53338048E+00 -8.64445771E-01 -2.08623308E+00  1.53338048E+00
 -8.64445771E-01 -2.08623308E+00 -1.53338048E+00 -8.64445771E-01 -2.08623308E+00
 -1.53338048E+00 -8.64445771E-01 -2.08623308E+00 -1.53338048E+00
Constraint Structure                       R   N=          21
  9.74021541E-02  1.32997036E+00  0.00000000E+00  1.12128979E+00  2.01173819E+00
  1.66375268E+00  1.12128979E+00  2.01173819E+00 -1.66375268E+00 -1.77992360E+00
  2.23799888E+00  0.00000000E+00  9.74021541E-02 -1.43840473E+00  0.00000000E+00
 -8.64445771E-01 -2.08623308E+00  1.53338048E+00 -8.64445771E-01 -2.08623308E+00
 -1.53338048E+00
Num ILSW                                   I              100
ILSW                                       I   N=         100
           0           1           0           0           2           0
           0           0           0           0         402          -1
           0           0           0           0           0           0
           0           0           1           0           0           0
           1           1           0           0           0           0
           0           0      100000           0          -1           0
           0           0           0           0           0           0
           0           0           0           1           0           0
           0           0           1           0           0           0
           0           0           4          41           0           0
           0           0           5           0           0           0
           0           0           0           0           0           0
           0           0           0           0           0           0
           0           0           0           0           0           0
           0           0           0           0           0           0
           0           0           0           0           0           0
           0           0           0           0
Num RLSW                                   I               41
RLSW                                       R   N=          41
  8.00000000E-01  7.20000000E-01  1.00000000E+00  8.10000000E-01  2.00000000E-01
  0.00000000E+00  0.00000000E+00  1.00000000E+00  0.00000000E+00  0.00000000E+00
  0.00000000E+00  0.00000000E+00  1.00000000E+00  0.00000000E+00  0.00000000E+00
  0.00000000E+00  0.00000000E+00  1.00000000E+00  0.00000000E+00  0.00000000E+00
  0.00000000E+00  0.00000000E+00  1.00000000E+00  0.00000000E+00  0.00000000E+00
  0.00000000E+00  0.00000000E+00  1.00000000E+00  0.00000000E+00  0.00000000E+00
  0.00000000E+00  0.00000000E+00  1.00000000E+00  0.00000000E+00  0.00000000E+00
  0.00000000E+00  0.00000000E+00  0.00000000E+00  1.00000000E+00  1.00000000E+00
  0.00000000E+00
MxBond                                     I                4
NBond                                      I   N=           7
           4           1           1           1           3           1
           1
IBond                                      I   N=          28
           2           3           4           5           1           0
           0           0           1           0           0           0
           1           0           0           0           1           6
           7           0           5           0           0           0
           5           0           0           0
RBond                                      R   N=          28
  1.00000000E+00  1.00000000E+00  1.00000000E+00  1.00000000E+00  1.00000000E+00
  0.00000000E+00  0.00000000E+00  0.00000000E+00  1.00000000E+00  0.00000000E+00
  0.00000000E+00  0.00000000E+00  1.00000000E+00  0.00000000E+00  0.00000000E+00
  0.00000000E+00  1.00000000E+00  1.00000000E+00  1.00000000E+00  0.00000000E+00
  1.00000000E+00  0.00000000E+00  0.00000000E+00  0.00000000E+00  1.00000000E+00
  0.00000000E+00  0.00000000E+00  0.00000000E+00
Virial Ratio                               R      2.009845009258430E+00
SCF Energy                                 R     -9.586369026456201E+01
Total Energy                               R     -9.586369026456201E+01
RMS Density                                R      9.910447066776776E-09
External E-field                           R   N=          35
  0.00000000E+00  0.00000000E+00  0.00000000E+00  0.00000000E+00  0.00000000E+00
  0.00000000E+00  0.00000000E+00  0.00000000E+00  0.00000000E+00  0.00000000E+00
  0.00000000E+00  0.00000000E+00  0.00000000E+00  0.00000000E+00  0.00000000E+00
  0.00000000E+00  0.00000000E+00  0.00000000E+00  0.00000000E+00  0.00000000E+00
  0.00000000E+00  0.00000000E+00  0.00000000E+00  0.00000000E+00  0.00000000E+00
  0.00000000E+00  0.00000000E+00  0.00000000E+00  0.00000000E+00  0.00000000E+00
  0.00000000E+00  0.00000000E+00  0.00000000E+00  0.00000000E+00  0.00000000E+00
IOpCl                                      I                0
IROHF                                      I                0
Alpha Orbital Energies                     R   N=          55
 -1.43083296E+01 -1.01984583E+01 -8.67937807E-01 -6.54178192E-01 -4.81479258E-01
 -4.33277866E-01 -3.94967845E-01 -3.62177450E-01 -2.29013504E-01  8.53928434E-02
  1.40199459E-01  1.54379828E-01  1.77144772E-01  1.84291711E-01  2.39135111E-01
  5.41516631E-01  5.56960126E-01  5.84290011E-01  7.28763450E-01  7.29276347E-01
  7.84089289E-01  8.40593458E-01  8.78806878E-01  8.97920966E-01  9.00190741E-01
  9.39332429E-01  1.04845857E+00  1.34530248E+00  1.36367167E+00  1.37803747E+00
  1.72494834E+00  1.72626733E+00  1.93629675E+00  2.02335992E+00  2.05134306E+00
  2.07048984E+00  2.07254997E+00  2.23383944E+00  2.26669619E+00  2.35571310E+00
  2.37663448E+00  2.47988649E+00  2.65037777E+00  2.66697042E+00  2.75415732E+00
  2.86494466E+00  2.91737173E+00  2.95481187E+00  3.16569948E+00  3.29654629E+00
  3.37058559E+00  3.45315693E+00  3.56807537E+00  3.95143022E+00  4.44853673E+00
Alpha MO coefficients                      R   N=        3025
 -1.66742269E-06  1.11378802E-04  3.39042350E-05 -2.61210774E-04 -1.40297113E-15
  4.40356886E-05 -2.45946507E-04  8.97792868E-05 -1.46448177E-15  2.01523264E-05
  9.09186767E-05  2.08775433E-06 -1.91850685E-05 -1.67885936E-15 -1.37080582E-15
 -1.84419350E-05 -2.92145890E-05  2.63818104E-05  5.63618931E-05  1.29873613E-05
 -1.84419350E-05 -2.92145890E-05  2.63818104E-05  5.63618931E-05 -1.29873613E-05
 -7.77473931E-05 -1.38964815E-04 -2.77082986E-05  4.25073525E-05  2.37236065E-16
  9.92742083E-01  3.46361714E-02 -1.28345930E-03  3.55894257E-04  9.89564402E-16
  3.62226125E-03  3.59293618E-04 -3.19137021E-04  2.28835137E-15 -8.06128852E-03
 -8.20641440E-03 -7.93337776E-03  9.58758029E-05 -1.48790822E-15 -1.31555084E-15
  1.53832611E-04 -4.49269859E-04 -9.36545213E-05 -8.43981764E-05  1.80799213E-04
  1.53832611E-04 -4.49269859E-04 -9.36545213E-05 -8.43981764E-05 -1.80799213E-04
  9.92929196E-01  4.92013939E-02  1.76069228E-05 -1.75756493E-04 -1.23160026E-15
 -1.51778312E-02 -2.49889679E-04  2.49002439E-04 -8.38152438E-16 -8.96908902E-03
 -9.01736994E-03 -8.95617701E-03 -2.69032657E-06 -1.60610788E-15 -1.20305848E-15
 -1.25831878E-04  2.72097379E-03  8.54070767E-05  3.32385322E-05  1.10483563E-04
 -1.25831878E-04  2.72097379E-03  8.54070767E-05  3.32385322E-05 -1.10483563E-04
 -1.54652553E-04  2.53778693E-03 -1.44930380E-04  3.61379431E-05  7.79892287E-17
 -1.39418482E-04 -1.63319533E-04  2.09401968E-05 -2.09100447E-04 -2.17108094E-16
  2.79988390E-03  1.81196663E-04  1.21780960E-03 -6.61142183E-16 -1.48524949E-04
 -5.96216933E-04 -2.28940390E-04 -1.37189947E-05  5.09230055E-16 -1.87479703E-17
 -1.90286483E-05  3.57941436E-04  4.05677970E-05  1.13061426E-04 -7.20824390E-05
 -1.90286483E-05  3.57941436E-04  4.05677970E-05  1.13061426E-04  7.20824390E-05
 -9.79318616E-02  1.88209438E-01 -5.63249938E-03 -9.84568498E-02  2.96635873E-16
  1.00224596E-01 -4.81844090E-03  1.47388793E-03 -1.60277276E-16 -1.07781421E-02
  1.38620006E-02 -9.49842739E-03  2.00801781E-03 -6.00399300E-16 -3.82548347E-16
  4.39486070E-02  8.61930741E-03 -2.57691374E-03 -2.72293279E-03 -4.28051705E-03
  4.39486070E-02  8.61930741E-03 -2.57691374E-03 -2.72293279E-03  4.28051705E-03
  4.25766670E-02  4.43781658E-03  4.73226899E-03 -3.23682179E-03 -3.56519095E-16
 -1.85125029E-01  3.82198511E-01 -8.02768726E-02  5.38968557E-02 -2.35901735E-17
  3.82790765E-01 -3.54460806E-02  3.08440629E-02 -6.09068221E-15 -1.18808605E-02
  4.47623316E-04 -7.96380449E-03  1.04989679E-03  8.00113713E-16  2.38596458E-16
  1.27338794E-01  1.53856774E-02  6.76350513E-03  6.47732641E-03 -1.38645201E-02
  1.27338794E-01  1.53856774E-02  6.76350513E-03  6.47732641E-03  1.38645201E-02
 -1.71069738E-01  3.43493087E-01  1.98028445E-02  8.58135431E-02 -8.31347952E-16
  3.19491462E-01 -4.44127476E-03  2.67717789E-02 -3.35946611E-15 -5.93162000E-03
 -1.63075173E-02 -4.79695755E-03 -2.11645921E-03 -6.78716257E-16 -8.03486371E-16
  1.40148887E-01  5.27707656E-02 -5.79853221E-03 -2.59994895E-03 -9.93168932E-03
  1.40148887E-01  5.27707656E-02 -5.79853221E-03 -2.59994895E-03  9.93168932E-03
  1.31039374E-01  4.33253214E-02  1.06611765E-02 -3.59227649E-03  3.18462190E-16
  7.66920041E-02 -1.64612844E-01  8.60702654E-02  1.51841619E-01  2.89842600E-16
 -2.00956240E-01  3.86384288E-02  5.49730471E-02  3.88060805E-15 -1.17583680E-03
  1.85441714E-02 -2.01315341E-03 -5.99990897E-03 -8.65868816E-16 -6.06425551E-16
 -1.05545714E-01 -3.56808821E-02 -3.65490501E-03 -4.59056364E-04  9.38991876E-03
 -1.05545714E-01 -3.56808821E-02 -3.65490501E-03 -4.59056364E-04 -9.38991876E-03
 -2.11967104E-16 -4.17491518E-16  6.41832837E-16 -7.42927421E-16  2.33758422E-01
 -1.20447016E-15 -1.37094623E-15  8.73835925E-15  1.10534770E-01  2.38656009E-17
 -6.00482447E-16 -2.73548598E-16 -1.76861864E-16  7.31394833E-03 -8.30142349E-03
  1.00663407E-01  6.22162244E-02 -2.98591560E-03 -2.19909900E-03 -7.98930624E-04
 -1.00663407E-01 -6.22162244E-02  2.98591560E-03  2.19909900E-03 -7.98930624E-04
 -1.22129105E-16 -4.68535760E-15 -2.27175352E-16 -1.40090549E-16  3.45663093E-03
 -8.90140230E-16 -2.92880420E-15  6.93153092E-16  8.59581235E-17  4.12956156E-01
  1.60729548E-14 -1.17465388E-16  6.67468953E-15  1.88337494E-01 -1.79918947E-15
 -1.17819851E-15 -2.69232002E-15 -7.53411715E-17 -2.43130163E-02  3.33518460E-03
  2.01250209E-01  1.36189661E-01  7.54612141E-03  6.56644243E-03 -2.24341575E-03
 -2.01250209E-01 -1.36189661E-01 -7.54612141E-03 -6.56644243E-03 -2.24341575E-03
 -5.48736320E-03  6.46285798E-03 -2.55428345E-01  3.00142061E-01  2.13874236E-16
  4.60621385E-03 -9.47520913E-02  1.15117711E-01  3.23255371E-15  1.66740991E-02
 -1.75161782E-02  4.06489989E-04 -2.07374539E-03  2.16276383E-16 -2.59816958E-16
 -8.30087262E-03 -8.97747449E-03 -4.59318634E-03  4.96809878E-03  6.02446923E-04
 -8.30087262E-03 -8.97747449E-03 -4.59318634E-03  4.96809878E-03 -6.02446923E-04
  2.18241148E-01  1.88608755E-01  7.12111722E-03 -1.78849510E-03 -1.17781916E-16
  2.91467929E-02 -7.05022019E-02 -2.10318167E-01 -2.88658960E-01  6.67923071E-16
 -9.43625305E-02 -1.17372348E-01 -1.27320175E-01 -2.38529443E-15  1.41624700E-02
 -1.30248382E-02  4.45224690E-03  2.11243751E-03  7.88087509E-16  2.98904510E-16
  9.76546354E-02  7.86962407E-02 -2.21907824E-03 -4.54254512E-03 -6.55049198E-03
  9.76546354E-02  7.86962407E-02 -2.21907824E-03 -4.54254512E-03  6.55049198E-03
  8.65023969E-03 -1.83723315E-02  3.45863636E-01  2.44362330E-01  2.56028480E-15
 -3.20302461E-02  1.58460548E-01  1.06305150E-01 -3.10183951E-15 -1.35018315E-03
 -1.49647058E-02  2.04628099E-02  8.79624306E-03  5.16371858E-17  6.15928760E-17
  1.55322491E-01  1.37261812E-01  2.09011939E-03  7.50680517E-04 -6.52352565E-03
  1.55322491E-01  1.37261812E-01  2.09011939E-03  7.50680517E-04  6.52352565E-03
 -1.42693999E-01 -1.27506771E-01 -6.58371760E-04  7.04535002E-03  2.30417237E-16
 -6.94370374E-03  1.05317635E-02  4.23855250E-02 -3.04746786E-01 -1.03880723E-15
  2.46249515E-02  3.41384457E-02 -1.60498699E-01 -8.80401667E-16  2.09529800E-04
 -9.43239152E-03  8.83326040E-03  2.10855672E-02  1.35263948E-16  3.25033175E-16
  6.73957364E-02  6.02587999E-02  3.27637825E-03 -7.58457652E-03 -3.34494338E-03
  6.73957364E-02  6.02587999E-02  3.27637825E-03 -7.58457652E-03  3.34494338E-03
 -5.27101500E-16  8.29104557E-17 -1.16815538E-15 -9.80496583E-16  3.89586133E-01
  8.69034307E-15 -6.59069183E-15 -1.59709135E-15  1.70693308E-01 -4.26476955E-16
 -8.70878062E-16 -1.54572317E-15 -2.67090373E-16  1.86551189E-02  2.01259978E-02
  2.20675264E-01  2.12120444E-01 -6.18600470E-03 -3.23702066E-03 -1.37843513E-03
 -2.20675264E-01 -2.12120444E-01  6.18600470E-03  3.23702066E-03 -1.37843513E-03
  1.23794436E-15 -7.06494871E-15 -4.04389819E-17  1.77922179E-16  7.77755765E-03
  4.48468465E-16  1.75872146E-15 -6.52436917E-16  1.61252197E-15 -2.46978413E-01
 -8.36103736E-15  9.54241720E-16 -1.05360682E-15 -1.29262082E-01  1.26638268E-15
  1.04056966E-15  1.36636367E-15 -2.87119992E-17  1.92651928E-02  1.43710568E-02
 -1.46119374E-01 -1.28501741E-01 -3.92611164E-03 -1.84010176E-03  7.94504701E-04
  1.46119374E-01  1.28501741E-01  3.92611164E-03  1.84010176E-03  7.94504701E-04
  1.28421476E-02 -3.12050909E-02 -1.31885838E-01  8.12717414E-02  4.18177707E-16
 -1.78456054E-02 -2.29893205E-02  1.81346838E-02  7.76721165E-16  8.56236772E-03
  3.21231292E-03 -6.90663339E-03 -2.87760928E-02  1.06353821E-16  1.87417651E-16
 -6.52101076E-02 -8.05842946E-02 -2.04867332E-03  1.04659481E-03  2.37686291E-03
 -6.52101076E-02 -8.05842946E-02 -2.04867332E-03  1.04659481E-03 -2.37686291E-03
  1.50763199E-01  2.22365102E-01  2.39488421E-03  1.45889189E-03 -9.16540649E-17
 -6.55699052E-02  1.39312064E-01  5.09123516E-01 -1.74786928E-01 -3.27223575E-17
  3.00849166E-01  4.14365491E-01 -1.62249824E-01 -4.88621472E-16 -2.68937067E-02
  4.41081117E-04  2.16033620E-03  8.66649344E-03 -3.16636855E-16 -7.62479318E-18
 -6.70120525E-02 -7.17657983E-02  1.38087420E-02 -6.36271537E-03  4.16233929E-03
 -6.70120525E-02 -7.17657983E-02  1.38087420E-02 -6.36271537E-03 -4.16233929E-03
 -4.89348576E-02  6.15550846E-02 -1.87072705E-02  1.66173597E-01 -1.98489308E-14
  7.92333805E-01  6.72919444E-02  5.47259771E-01 -8.29477147E-14 -1.09412159E-02
  6.17699226E-03 -1.41975412E-02  4.84158709E-03 -9.09948143E-16  1.73297970E-16
 -6.45788482E-03 -4.66556736E-01 -1.18915631E-03  5.72165090E-03 -3.57919842E-03
 -6.45788482E-03 -4.66556736E-01 -1.18915631E-03  5.72165090E-03  3.57919842E-03
 -6.82388211E-03 -5.21353387E-01  4.54492159E-03  3.05465861E-03  6.87859359E-17
 -1.09375767E-01  1.47255922E-01 -1.72275422E-01 -6.70035094E-02 -2.09757112E-14
  1.55760792E+00 -4.42414518E-01 -1.35797667E-01 -5.24991690E-14 -2.64532229E-02
 -2.67829951E-02 -3.32308381E-02  2.27189355E-03  5.03243931E-16 -1.31871088E-15
 -5.41352424E-02 -9.68872348E-01  3.65756052E-03 -5.71168599E-04 -6.19254535E-03
 -5.41352424E-02 -9.68872348E-01  3.65756052E-03 -5.71168599E-04  6.19254535E-03
 -1.52721005E-01  1.87291057E-01  1.95606563E-03  6.66859565E-02 -1.18920910E-13
  2.49758770E+00  2.78888540E-02  7.98354467E-02 -3.23162213E-13 -1.23096143E-02
 -1.73778023E-02 -8.32617848E-03 -2.87122336E-03 -3.68194917E-16  5.63916813E-15
 -2.34589111E-02 -1.05509810E+00 -3.00296743E-03 -2.86731143E-03 -2.57544842E-03
 -2.34589111E-02 -1.05509810E+00 -3.00296743E-03 -2.86731143E-03  2.57544842E-03
 -2.07701003E-02 -1.03013291E+00  3.89016698E-03 -3.30842090E-03 -1.26053129E-15
  7.36050238E-02 -7.78883971E-02  1.01079057E-01 -5.47382253E-02 -1.25874887E-13
 -1.14654045E+00  2.18528796E-01 -2.74791120E-01 -3.02641033E-13  1.78619415E-02
  3.03622491E-02  2.32170449E-02  4.22643418E-03  6.46319782E-15 -7.34951479E-15
  3.51766256E-02  4.94754318E-01 -2.16266967E-03 -5.88539548E-03  4.57230201E-03
  3.51766256E-02  4.94754318E-01 -2.16266967E-03 -5.88539548E-03 -4.57230201E-03
  7.24258284E-14 -1.25190705E-13 -7.11311141E-15 -3.68162083E-14 -2.64555785E-01
 -1.14056238E-12 -3.98604599E-14  6.28205063E-14 -6.37200207E-01  2.17794811E-15
  1.28198377E-15 -4.26853752E-16 -6.58288066E-16  4.19010018E-03  1.80682794E-02
  5.88284338E-02  8.50567729E-01  1.77186298E-03  4.70173355E-03  5.87242065E-04
 -5.88284338E-02 -8.50567729E-01 -1.77186298E-03 -4.70173355E-03  5.87242065E-04
  5.75689133E-15  4.19913016E-13 -3.73715882E-15  1.18978757E-15 -2.59651630E-03
 -2.81212097E-14 -1.55722571E-14 -1.80198008E-14  4.79958354E-14 -3.18527948E-01
  5.30837001E-13 -4.88078320E-14  2.21559025E-13 -7.17827162E-01 -2.22948033E-14
 -2.39473069E-14 -2.07626137E-14 -3.18364794E-15  8.74296910E-03 -2.13154233E-02
  8.51894045E-02  1.13530108E+00 -2.93453612E-03 -4.28424131E-03 -7.96812324E-04
 -8.51894045E-02 -1.13530108E+00  2.93453612E-03  4.28424131E-03 -7.96812324E-04
  7.53528309E-03 -3.04146658E-03  4.35136217E-01  2.31698617E-02  1.75569282E-13
 -7.46913933E-02  1.32866571E+00  1.51131657E-01  7.32400330E-13  9.48090196E-03
  8.93217670E-03 -1.54158868E-02 -5.99058688E-03 -1.06847895E-14  2.21943161E-15
 -4.71666483E-02 -9.21400591E-01  7.60269039E-03  7.64022110E-04 -7.21767974E-03
 -4.71666483E-02 -9.21400591E-01  7.60269039E-03  7.64022110E-04  7.21767974E-03
  8.41742184E-02  1.66292247E+00 -2.30586684E-03  5.00347549E-03  6.71080691E-15
 -3.29677549E-03  1.25934614E-03 -4.72096265E-02  9.72077068E-02 -1.52114579E-13
  8.53752921E-02 -2.44743359E-01  1.67129216E-01 -4.79930033E-13  1.04356360E-02
 -2.51745414E-03 -5.07466478E-03  1.46874183E-02  4.77000780E-15  6.25815056E-15
  1.94907830E-02  6.36320192E-02 -4.98450763E-03 -2.42784135E-03 -9.59585612E-04
  1.94907830E-02  6.36320192E-02 -4.98450763E-03 -2.42784135E-03  9.59585612E-04
  1.07517906E-14 -1.80634613E-14  2.57162591E-13  1.98535717E-14 -3.11886756E-01
 -1.12979128E-13  7.50437016E-13  1.27858615E-13 -1.24018598E+00  2.39900491E-15
  4.01478254E-16 -1.59692735E-14 -5.18066274E-15  1.95536334E-02 -3.11733990E-03
  7.82579469E-02  1.27318641E+00  6.18873814E-03 -1.95168535E-03 -1.30032691E-03
 -7.82579469E-02 -1.27318641E+00 -6.18873814E-03  1.95168535E-03 -1.30032691E-03
  5.52654040E-14  9.66565985E-13 -2.45194547E-15  4.28718079E-15 -1.25330963E-02
 -4.02839688E-15  1.54009584E-14 -2.93874585E-14  6.83759782E-14  2.62095542E-01
  5.25360603E-14 -1.26026672E-13  1.46939724E-13  8.01863305E-01  1.19850261E-14
  5.34329773E-15 -1.72899359E-16  9.19169853E-15 -6.45044524E-03 -1.05242673E-02
 -2.73368903E-02 -8.38748078E-01  3.91380300E-03 -6.74932944E-03  1.72458821E-03
  2.73368903E-02  8.38748078E-01 -3.91380300E-03  6.74932944E-03  1.72458821E-03
  5.95345759E-02 -7.48619356E-02 -4.88898365E-02  3.19872653E-01  3.13760670E-14
 -9.08047297E-01 -2.85598434E-01  1.61084632E+00  5.94606339E-14 -2.05432181E-02
  3.65340687E-02 -1.55127260E-02 -5.37898653E-03 -1.96849001E-15 -1.97478165E-15
 -5.98259220E-02 -3.99611484E-02 -4.03060600E-03  1.19717598E-02 -2.82994304E-03
 -5.98259220E-02 -3.99611484E-02 -4.03060600E-03  1.19717598E-02  2.82994304E-03
 -5.45112602E-02 -6.20040268E-01  6.86825554E-03  1.66772276E-02  9.17596139E-16
 -4.66250517E-02  6.55371441E-02  1.23461675E-01  4.09345373E-01  1.15424234E-14
  7.72045108E-01  3.13519410E-01  1.22950836E+00  6.24992786E-15 -1.79162335E-02
 -8.58309067E-03  4.16051752E-03 -1.36837573E-02  9.36159783E-16  3.08158533E-15
  3.97886721E-02  5.94380710E-01  1.25728766E-03  8.17046187E-03  4.34448366E-03
  3.97886721E-02  5.94380710E-01  1.25728766E-03  8.17046187E-03 -4.34448366E-03
 -2.13271699E-02  3.19924148E-01 -8.72840729E-02 -9.51504708E-01  4.81542581E-14
 -3.00559817E-01  1.58460574E-01  1.48204116E+00 -9.87531899E-14  1.31013516E-02
  2.04660893E-02  1.79859606E-02  6.59153402E-03  4.91934816E-15  1.99950202E-15
 -9.92643142E-02 -1.30575880E-01  6.18629423E-03  2.77996847E-03  1.32549891E-02
 -9.92643142E-02 -1.30575880E-01  6.18629423E-03  2.77996847E-03 -1.32549891E-02
 -1.21447794E-01 -8.73193812E-02 -1.12230843E-02 -2.74375500E-05 -1.58745861E-15
  2.26968403E-02 -1.43488679E-01  7.49306458E-02 -5.81213662E-02  9.21422732E-15
  7.30717505E-01 -1.37769692E-01  1.47811708E-02 -4.84809720E-15 -5.45129741E-02
  1.36163952E-01 -6.28365313E-02  1.25632140E-02 -1.24773227E-15 -1.19190516E-15
 -1.05488631E-01  1.52440867E-01 -2.43245365E-04 -4.34614920E-02 -4.56626841E-03
 -1.05488631E-01  1.52440867E-01 -2.43245365E-04 -4.34614920E-02  4.56626841E-03
 -1.37045282E-15  3.93844773E-14 -5.86886134E-14 -5.95863393E-14 -6.86341362E-01
 -4.33271638E-14  1.27258665E-13  8.24878257E-14  1.46339111E+00  5.95906827E-15
  8.28850392E-15 -4.81486340E-16 -1.27600222E-15 -7.77179105E-02 -4.65018871E-02
 -4.17166308E-01 -2.13393161E-01  3.47950579E-03  5.10494028E-03  3.23811543E-02
  4.17166308E-01  2.13393161E-01 -3.47950579E-03 -5.10494028E-03  3.23811543E-02
  2.07506029E-14  2.90188091E-14  3.36067441E-15 -8.19535640E-16  2.85878412E-02
  3.34148350E-15 -9.19536446E-15 -3.35947521E-15  1.24233025E-14  4.00483705E-02
  2.72570672E-14 -2.24558594E-14 -1.58807475E-14 -1.43075451E-01 -4.09809277E-15
  7.95593065E-15 -2.31970734E-15  2.00656906E-15  4.73162390E-02  5.22453794E-02
 -2.27254415E-01  4.73946811E-02  1.58729311E-02  4.08137271E-02 -6.00754641E-03