NH2 for CDA                                                             
SP        UB3LYP                                                      6-31G(d,p)          
Number of atoms                            I                3
Info1-9                                    I   N=           9
          11          10           0           0           0         110
           1          18        -502
Charge                                     I                0
Multiplicity                               I                2
Number of electrons                        I                9
Number of alpha electrons                  I                5
Number of beta electrons                   I                4
Number of basis functions                  I               25
Number of independent functions            I               25
Number of point charges in /Mol/           I                0
Number of translation vectors              I                0
Atomic numbers                             I   N=           3
           7           1           1
Nuclear charges                            R   N=           3
  7.00000000E+00  1.00000000E+00  1.00000000E+00
Current cartesian coordinates              R   N=           9
  9.74021541E-02 -1.43840473E+00  0.00000000E+00 -8.64445771E-01 -2.08623308E+00
  1.53338048E+00 -8.64445771E-01 -2.08623308E+00 -1.53338048E+00
Force Field                                I                0
Int Atom Types                             I   N=           3
           0           0           0
MM charges                                 R   N=           3
  0.00000000E+00  0.00000000E+00  0.00000000E+00
Integer atomic weights                     I   N=           3
          14           1           1
Real atomic weights                        R   N=           3
  1.40030740E+01  1.00782504E+00  1.00782504E+00
Atom fragment info                         I   N=           3
           0           0           0
Atom residue num                           I   N=           3
           0           0           0
Nuclear spins                              I   N=           3
           2           1           1
Nuclear ZEff                               R   N=           3
 -4.55000000E+00 -1.00000000E+00 -1.00000000E+00
Nuclear ZNuc                               R   N=           3
  7.00000000E+00  1.00000000E+00  1.00000000E+00
Nuclear QMom                               R   N=           3
  2.04400000E+00  0.00000000E+00  0.00000000E+00
Nuclear GFac                               R   N=           3
  4.03761000E-01  2.79284600E+00  2.79284600E+00
MicOpt                                     I   N=           3
          -1          -1          -1
Number of contracted shells                I               10
Number of primitive shells                 I               21
Pure/Cartesian d shells                    I                1
Pure/Cartesian f shells                    I                0
Highest angular momentum                   I                2
Largest degree of contraction              I                6
Shell types                                I   N=          10
           0          -1          -1           2           0           0
           1           0           0           1
Number of primitives per shell             I   N=          10
           6           3           1           1           3           1
           1           3           1           1
Shell to atom map                          I   N=          10
           1           1           1           1           2           2
           2           3           3           3
Primitive exponents                        R   N=          21
  4.17351146E+03  6.27457911E+02  1.42902093E+02  4.02343293E+01  1.28202129E+01
  4.39043701E+00  1.16263619E+01  2.71627981E+00  7.72218397E-01  2.12031498E-01
  8.00000000E-01  1.87311370E+01  2.82539436E+00  6.40121692E-01  1.61277759E-01
  1.10000000E+00  1.87311370E+01  2.82539436E+00  6.40121692E-01  1.61277759E-01
  1.10000000E+00
Contraction coefficients                   R   N=          21
  1.83477216E-03  1.39946270E-02  6.85865518E-02  2.32240873E-01  4.69069948E-01
  3.60455199E-01 -1.14961182E-01 -1.69117479E-01  1.14585195E+00  1.00000000E+00
  1.00000000E+00  3.34946043E-02  2.34726953E-01  8.13757326E-01  1.00000000E+00
  1.00000000E+00  3.34946043E-02  2.34726953E-01  8.13757326E-01  1.00000000E+00
  1.00000000E+00
P(S=P) Contraction coefficients            R   N=          21
  0.00000000E+00  0.00000000E+00  0.00000000E+00  0.00000000E+00  0.00000000E+00
  0.00000000E+00  6.75797439E-02  3.23907296E-01  7.40895140E-01  1.00000000E+00
  0.00000000E+00  0.00000000E+00  0.00000000E+00  0.00000000E+00  0.00000000E+00
  0.00000000E+00  0.00000000E+00  0.00000000E+00  0.00000000E+00  0.00000000E+00
  0.00000000E+00
Coordinates of each shell                  R   N=          30
  9.74021541E-02 -1.43840473E+00  0.00000000E+00  9.74021541E-02 -1.43840473E+00
  0.00000000E+00  9.74021541E-02 -1.43840473E+00  0.00000000E+00  9.74021541E-02
 -1.43840473E+00  0.00000000E+00 -8.64445771E-01 -2.08623308E+00  1.53338048E+00
 -8.64445771E-01 -2.08623308E+00  1.53338048E+00 -8.64445771E-01 -2.08623308E+00
  1.53338048E+00 -8.64445771E-01 -2.08623308E+00 -1.53338048E+00 -8.64445771E-01
 -2.08623308E+00 -1.53338048E+00 -8.64445771E-01 -2.08623308E+00 -1.53338048E+00
Constraint Structure                       R   N=           9
  9.74021541E-02 -1.43840473E+00  0.00000000E+00 -8.64445771E-01 -2.08623308E+00
  1.53338048E+00 -8.64445771E-01 -2.08623308E+00 -1.53338048E+00
Num ILSW                                   I              100
ILSW                                       I   N=         100
           1           1           0           0           2           0
           0           0           0           0         402          -1
           0           0           0           0           0           0
           0           0           1           0           0           0
           1           1           0           0           0           0
           0           0      100000           0          -1           0
           0           0           0           0           0           0
           0           0           0           1           0           0
           0           0           1           0           0           0
           0           0           4          41           0           0
           0           0           5           0           0           0
           0           0           0           0           0           0
           0           0           0           0           0           0
           0           0           0           0           0           0
           0           0           0           0           0           0
           0           0           0           0           0           0
           0           0           0           0
Num RLSW                                   I               41
RLSW                                       R   N=          41
  8.00000000E-01  7.20000000E-01  1.00000000E+00  8.10000000E-01  2.00000000E-01
  0.00000000E+00  0.00000000E+00  1.00000000E+00  0.00000000E+00  0.00000000E+00
  0.00000000E+00  0.00000000E+00  1.00000000E+00  0.00000000E+00  0.00000000E+00
  0.00000000E+00  0.00000000E+00  1.00000000E+00  0.00000000E+00  0.00000000E+00
  0.00000000E+00  0.00000000E+00  1.00000000E+00  0.00000000E+00  0.00000000E+00
  0.00000000E+00  0.00000000E+00  1.00000000E+00  0.00000000E+00  0.00000000E+00
  0.00000000E+00  0.00000000E+00  1.00000000E+00  0.00000000E+00  0.00000000E+00
  0.00000000E+00  0.00000000E+00  0.00000000E+00  1.00000000E+00  1.00000000E+00
  0.00000000E+00
MxBond                                     I                2
NBond                                      I   N=           3
           2           1           1
IBond                                      I   N=           6
           2           3           1           0           1           0
RBond                                      R   N=           6
  1.00000000E+00  1.00000000E+00  1.00000000E+00  0.00000000E+00  1.00000000E+00
  0.00000000E+00
Virial Ratio                               R      2.007828111867422E+00
SCF Energy                                 R     -5.587833419388305E+01
Total Energy                               R     -5.587833419388305E+01
S**2                                       R      7.526142714903865E-01
S**2 after annihilation                    R      7.500036322035413E-01
RMS Density                                R      2.335758425735856E-09
External E-field                           R   N=          35
  0.00000000E+00  0.00000000E+00  0.00000000E+00  0.00000000E+00  0.00000000E+00
  0.00000000E+00  0.00000000E+00  0.00000000E+00  0.00000000E+00  0.00000000E+00
  0.00000000E+00  0.00000000E+00  0.00000000E+00  0.00000000E+00  0.00000000E+00
  0.00000000E+00  0.00000000E+00  0.00000000E+00  0.00000000E+00  0.00000000E+00
  0.00000000E+00  0.00000000E+00  0.00000000E+00  0.00000000E+00  0.00000000E+00
  0.00000000E+00  0.00000000E+00  0.00000000E+00  0.00000000E+00  0.00000000E+00
  0.00000000E+00  0.00000000E+00  0.00000000E+00  0.00000000E+00  0.00000000E+00
IOpCl                                      I                1
IROHF                                      I                0
Alpha Orbital Energies                     R   N=          25
 -1.43563891E+01 -8.53457302E-01 -4.76463305E-01 -3.14388508E-01 -3.08651735E-01
  8.25380153E-02  1.57017995E-01  6.54111539E-01  6.85724729E-01  7.00656332E-01
  7.96657312E-01  8.60351417E-01  9.90249872E-01  1.44766611E+00  1.48425833E+00
  1.56070118E+00  2.05179763E+00  2.17058524E+00  2.29954438E+00  2.53394707E+00
  2.54468461E+00  2.89629900E+00  3.21714931E+00  3.40880554E+00  3.66752057E+00
Beta Orbital Energies                      R   N=          25
 -1.43374046E+01 -7.99943094E-01 -4.62276544E-01 -2.89450353E-01 -9.86702863E-02
  9.27020409E-02  1.63226491E-01  6.88783783E-01  7.14498723E-01  7.42506239E-01
  8.15219228E-01  8.69418834E-01  1.01850129E+00  1.49426006E+00  1.50195935E+00
  1.61323068E+00  2.12124541E+00  2.16788772E+00  2.30530188E+00  2.55820912E+00
  2.57398244E+00  2.90004557E+00  3.23049281E+00  3.41731192E+00  3.70059872E+00
Alpha MO coefficients                      R   N=         625
  9.92581451E-01  3.53445496E-02 -1.39421266E-03 -9.39006982E-04 -1.46127489E-16
  3.93034813E-03  2.26540180E-04  1.52566093E-04  2.86321732E-16 -8.31070196E-03
 -8.25821396E-03 -8.21823781E-03 -7.46976593E-05 -1.09495627E-16 -7.19348229E-17
  7.19893262E-05 -5.01443541E-04 -1.67287023E-04 -1.12671677E-04  3.17571685E-04
  7.19893262E-05 -5.01443541E-04 -1.67287023E-04 -1.12671677E-04 -3.17571685E-04
 -2.04803143E-01  4.41503917E-01 -1.10836872E-01 -7.46506077E-02 -5.77260865E-15
  4.40081783E-01 -4.97642611E-02 -3.35168790E-02 -8.07589985E-15 -7.20609497E-03
 -4.29774627E-03 -1.08231025E-02 -4.13926485E-03  3.70044836E-17  9.50395848E-17
  1.63266628E-01  1.70731859E-02  8.59624796E-03  5.78976095E-03 -1.75549357E-02
  1.63266628E-01  1.70731859E-02  8.59624796E-03  5.78976095E-03  1.75549357E-02
 -3.26448288E-15  7.34519037E-15  8.01854590E-17  1.63959850E-15  4.96008264E-01
  9.88373839E-15 -1.93179613E-16  1.09114400E-15  2.20328638E-01  6.20906489E-16
  1.03698724E-15 -1.03231268E-15  1.27617121E-16 -3.21188702E-02 -2.16325558E-02
  2.45252543E-01  1.74781321E-01  8.11229641E-03  5.46377437E-03 -1.78971377E-03
 -2.45252543E-01 -1.74781321E-01 -8.11229641E-03 -5.46377437E-03 -1.78971377E-03
 -9.33607675E-02  1.94165153E-01  4.45261410E-01  3.00026585E-01 -5.20304473E-15
  4.44874036E-01  2.98502859E-01  2.01146132E-01 -9.50414323E-15 -2.96615680E-02
 -6.07048111E-03 -9.85222204E-03 -3.35928231E-02 -4.25941138E-16 -6.54515102E-17
 -1.30209407E-01 -1.32966394E-01  1.05505089E-02  7.10952557E-03  5.79948882E-03
 -1.30209407E-01 -1.32966394E-01  1.05505089E-02  7.10952557E-03 -5.79948882E-03
  1.58632748E-05 -3.31047075E-05 -3.63819012E-01  5.40011689E-01 -6.32619910E-16
 -7.52293366E-05 -2.69666585E-01  4.00272554E-01 -3.90739821E-15  2.43506211E-02
 -2.43443216E-02  1.54448062E-06 -1.13968490E-02  6.23076295E-16 -6.85984166E-16
  2.15873089E-05  2.25182150E-05 -9.68393948E-03  1.43741405E-02 -9.64050920E-07
  2.15873089E-05  2.25182150E-05 -9.68393948E-03  1.43741405E-02  9.64050920E-07
 -1.04514252E-01  1.67610105E-01 -2.31679052E-01 -1.56041261E-01 -7.26145682E-14
  1.48428429E+00 -5.15517261E-01 -3.47213535E-01 -1.81329356E-13 -1.78485135E-02
 -2.31324119E-02 -3.51656835E-02  7.52128064E-03  4.13366080E-15  3.40146321E-15
 -7.43841797E-02 -1.17307719E+00  2.22714761E-03  1.50005906E-03 -6.70509571E-03
 -7.43841797E-02 -1.17307719E+00  2.22714761E-03  1.50005906E-03  6.70509571E-03
  1.88229802E-14 -6.41274411E-14  5.37115309E-14  2.73966860E-14 -4.34894393E-01
 -1.90623376E-13  6.33897669E-14  4.86591743E-14 -9.61787509E-01 -5.09459735E-15
  1.13567937E-15  2.16022717E-15  8.03122667E-16  9.70042410E-03  6.53313032E-03
  8.88388384E-02  1.39992264E+00 -5.45766303E-03 -3.67586877E-03 -2.74637908E-03
 -8.88388384E-02 -1.39992264E+00  5.45766303E-03  3.67586877E-03 -2.74637908E-03
 -5.76397450E-08 -6.61964940E-06  5.41942302E-01 -8.04658428E-01  4.07359577E-15
  8.97934099E-06 -5.95811126E-01  8.84642049E-01  2.61761598E-14 -1.37372413E-03
  1.36991539E-03 -2.78074124E-06  6.42259041E-04  6.79048457E-15  5.72047646E-15
 -1.05861526E-06  2.19441701E-06  5.26456092E-03 -7.81558477E-03 -9.00594145E-07
 -1.05861519E-06  2.19441698E-06  5.26456092E-03 -7.81558477E-03  9.00594144E-07
 -3.18051243E-15 -2.60410906E-15  6.73085395E-14  9.15415655E-14 -3.17389536E-01
  6.92135968E-14 -1.00295617E-13 -1.18325914E-13  1.12051751E+00  3.50449612E-15
  2.08186906E-15  9.02069915E-16  9.66342962E-16  1.37070897E-01  9.23210311E-02
 -6.75604532E-01  1.08638831E-01  2.48011471E-02  1.67042558E-02  2.17520192E-02
  6.75604532E-01 -1.08638831E-01 -2.48011471E-02 -1.67042558E-02  2.17520192E-02
  1.32512283E-02 -3.16538629E-01 -7.54690853E-01 -5.08285948E-01 -5.30622798E-14
  1.44101914E-01  9.52780374E-01  6.41702980E-01  1.45238746E-13 -9.49458581E-02
 -8.46541926E-02 -1.35085447E-01 -1.46505387E-02  1.25985967E-14  8.57705543E-15
  1.55412803E-02  2.67094711E-01  3.08680620E-02  2.07906007E-02 -6.15730232E-02
  1.55412803E-02  2.67094711E-01  3.08680620E-02  2.07906007E-02  6.15730232E-02
  6.15738879E-02 -1.42161454E-01  8.83787768E-02  5.95241548E-02  8.58780586E-14
 -2.06605638E-02  2.51772447E-01  1.69576573E-01 -1.32673266E-13 -3.30553347E-02
 -1.14727235E-01  2.76368764E-01  1.16254992E-01  1.74190918E-14  1.18301241E-14
  8.26040203E-01 -4.81791497E-01 -3.93125390E-03 -2.64774752E-03  1.12834975E-01
  8.26040203E-01 -4.81791497E-01 -3.93125390E-03 -2.64774752E-03 -1.12834975E-01
  1.28817100E-14  2.86394945E-13 -1.84943566E-14 -2.93945479E-14 -8.86192951E-01
 -6.88475952E-13  1.54801356E-13  1.23939366E-13  1.55424125E+00  4.90131454E-14
  2.75902128E-14  9.60494237E-14  1.36292880E-14 -1.68005050E-01 -1.13156111E-01
  4.03597276E-01 -1.38307467E+00 -8.32691756E-02 -5.60839460E-02  9.81717993E-02
 -4.03597276E-01  1.38307467E+00  8.32691756E-02  5.60839460E-02  9.81717993E-02
 -4.06369293E-02 -1.52774546E+00  2.43360784E-01  1.63911259E-01 -1.56787046E-13
  3.62639929E+00 -8.42264192E-01 -5.67287815E-01  2.97525914E-13 -2.19978437E-01
 -2.10901775E-01 -3.22198111E-01 -1.29197666E-02 -4.06017104E-14 -2.69708689E-14
 -5.55751109E-02 -1.16990060E+00 -5.86413380E-02 -3.94965643E-02  2.50394460E-02
 -5.55751109E-02 -1.16990060E+00 -5.86413380E-02 -3.94965643E-02 -2.50394460E-02
  2.85810100E-16  1.05227704E-16 -2.54011375E-15  1.78009222E-15 -4.83287013E-07
 -3.67770773E-15 -3.37481551E-16  5.10635600E-15 -1.54437714E-07 -6.77348944E-15
  1.09181543E-14 -1.48763204E-15  7.93974318E-15 -4.01068612E-01  5.95477782E-01
  7.25807429E-07 -4.43422859E-07 -1.85599402E-01  2.75564128E-01  8.87015763E-08
 -7.25807431E-07  4.43422864E-07  1.85599402E-01 -2.75564128E-01  8.87015766E-08
  1.37174000E-02  1.82924674E-01  2.36274053E-02  1.59139296E-02  3.59005064E-15
 -5.10593255E-01  2.79915582E-01  1.88530844E-01 -1.19896626E-14  4.28113222E-01
  2.71633640E-02 -3.60733219E-01  5.70739170E-01  4.60326881E-15 -3.11841856E-15
  1.54581958E-01  1.21709652E-01 -2.13963220E-01 -1.44110753E-01 -1.73386302E-01
  1.54581958E-01  1.21709652E-01 -2.13963220E-01 -1.44110753E-01  1.73386302E-01
 -1.29107389E-07  6.64957299E-07  3.04985150E-02 -4.52806620E-02  7.01963464E-15
 -1.18044079E-07  7.68138303E-02 -1.14046438E-01 -1.45648697E-14  6.54459017E-01
 -6.54457977E-01 -1.34700824E-06 -3.06511016E-01 -9.30064631E-15  1.17551080E-14
  1.86878546E-07  3.80971424E-08 -1.57047975E-01  2.33171300E-01 -7.87676261E-07
  1.86878554E-07  3.80971120E-08 -1.57047975E-01  2.33171300E-01  7.87676263E-07
 -5.31949921E-02 -3.86676738E-01  1.06431761E-01  7.16849524E-02  3.09571294E-15
  1.16392531E+00 -4.79606224E-01 -3.23026757E-01  1.03136307E-14 -2.41386555E-01
 -6.67168945E-01  5.60322010E-01  6.06078431E-01  1.44745594E-15  2.74918411E-15
 -5.49518551E-01 -1.59353548E-01  1.41674390E-01  9.54209989E-02 -1.14105128E-01
 -5.49518551E-01 -1.59353548E-01  1.41674390E-01  9.54209989E-02  1.14105128E-01
 -8.84654766E-16  1.69119432E-14 -5.11936247E-15 -2.93477003E-15 -8.33698042E-02
 -1.45789609E-14  4.94887471E-15  4.70084385E-15  5.65110347E-01  7.31795100E-15
  9.85933583E-15 -2.61326633E-14 -5.94985955E-15 -1.73373688E-01 -1.16771299E-01
 -2.84714033E-01 -6.49859114E-02 -3.85196066E-01 -2.59439053E-01 -5.27687986E-01
  2.84714033E-01  6.49859114E-02  3.85196066E-01  2.59439053E-01 -5.27687986E-01
  2.15366336E-15 -1.15998767E-14  2.28919626E-15  1.74820729E-15  2.36469172E-01
  5.43310120E-16 -1.01082725E-15  2.99679105E-15 -2.29603538E-01  1.08826937E-14
  8.60747348E-15 -3.29049101E-15 -1.17944138E-14  6.70865060E-01  4.51845524E-01
  4.46412626E-01 -2.13011264E-01 -3.44567511E-01 -2.32076346E-01  8.91766590E-02
 -4.46412626E-01  2.13011264E-01  3.44567511E-01  2.32076346E-01  8.91766590E-02
  9.90827564E-08 -6.23163054E-07  3.28921358E-02 -4.88359101E-02  2.84191739E-15
 -3.29243648E-08  1.82314699E-01 -2.70687771E-01  5.31173900E-16 -5.34989885E-01
  5.34990510E-01 -1.10119449E-07  2.50561399E-01 -3.83789656E-13  5.80648853E-13
  2.59914928E-08  8.99019986E-09 -4.12678918E-01  6.12716021E-01  6.54302732E-08
  2.59914882E-08  8.99020777E-09 -4.12678918E-01  6.12716021E-01 -6.54302716E-08
  2.06742984E-16 -1.36950863E-15 -2.75364398E-14  4.37234577E-14 -6.53182738E-07
 -1.53564825E-15 -1.54238393E-13  2.26961647E-13  2.64764175E-07  4.59032254E-13
 -4.50468570E-13 -7.89836309E-15 -2.08849873E-13 -4.56669468E-01  6.78026851E-01
 -6.27280114E-07  3.63001269E-07  3.88982670E-01 -5.77531541E-01 -1.58843707E-07
  6.27280118E-07 -3.63001269E-07 -3.88982670E-01  5.77531541E-01 -1.58843710E-07
 -1.21261369E-02  1.72181637E-01  4.15818042E-02  2.80062934E-02  2.93603110E-15
 -2.63463065E-01  3.40966771E-01  2.29649443E-01  6.06733352E-15 -5.95275935E-01
 -2.55578702E-01  6.43888458E-01 -4.83539125E-01 -8.68501255E-15  3.21069823E-15
  8.01485392E-02  1.27587399E-01 -4.93687020E-01 -3.32510103E-01 -4.89991101E-01
  8.01485392E-02  1.27587399E-01 -4.93687020E-01 -3.32510103E-01  4.89991101E-01
 -2.20037869E-01  7.06221260E-01 -4.15418177E-01 -2.79794184E-01 -1.66478066E-14
  2.03695353E+00 -5.07413732E-01 -3.41755935E-01 -2.58556134E-14 -5.52380905E-01
 -8.10055434E-01  1.07089669E-01  3.66785982E-01  2.67282991E-14  1.97163227E-14
 -5.65648850E-01 -6.24388235E-01 -4.19286415E-01 -2.82399573E-01  7.19054671E-01
 -5.65648850E-01 -6.24388235E-01 -4.19286415E-01 -2.82399573E-01 -7.19054671E-01
  9.73401398E-15 -2.57814118E-14  4.18637430E-15  2.20612214E-15 -8.32708453E-01
 -7.62849887E-14  1.36913553E-14  9.10707462E-15 -9.45370018E-01  2.98390140E-14
  3.27128257E-14  2.65959849E-14 -6.29695132E-15  1.09649317E+00  7.38515142E-01
  8.99891052E-01  5.47061023E-01  5.33634513E-01  3.59416044E-01 -8.18553145E-01
 -8.99891052E-01 -5.47061023E-01 -5.33634513E-01 -3.59416044E-01 -8.18553145E-01
 -3.90161167E-01  1.03223481E+00  3.91850399E-01  2.63921054E-01 -1.28156059E-14
  1.89625835E+00 -5.01169546E-02 -3.37551427E-02 -1.42978855E-14 -1.34016747E+00
 -1.19860603E+00 -1.87416444E+00 -2.01504590E-01  1.78602947E-14  1.19561715E-14
  5.68342781E-01 -3.15442262E-01  3.42041339E-01  2.30373333E-01 -4.44945703E-01
  5.68342781E-01 -3.15442262E-01  3.42041339E-01  2.30373333E-01  4.44945703E-01
Beta MO coefficients                       R   N=         625
  9.93082769E-01  3.33065217E-02 -1.40974257E-03 -9.49502434E-04 -3.49581783E-16
  3.05502307E-03  2.00827931E-04  1.35263711E-04  1.75322414E-16 -7.45346841E-03
 -7.78121772E-03 -6.97353978E-03  4.66457642E-04  2.05089277E-16  1.20557534E-16
 -1.55908415E-04 -3.47388301E-04 -2.20460187E-04 -1.48490325E-04  4.01552731E-04
 -1.55908415E-04 -3.47388301E-04 -2.20460187E-04 -1.48490325E-04 -4.01552731E-04
 -1.97046215E-01  4.14739693E-01 -1.15464535E-01 -7.77677527E-02 -5.95440707E-15
  4.12175238E-01 -4.68301597E-02 -3.15409788E-02 -7.67919619E-15 -5.70441656E-03
 -1.65556994E-02  2.13761995E-03  1.54446565E-02  3.97105473E-16  1.55337432E-16
  1.79948868E-01  3.64091250E-02  7.84426772E-03  5.28329228E-03 -1.76205228E-02
  1.79948868E-01  3.64091250E-02  7.84426772E-03  5.28329228E-03  1.76205228E-02
 -3.75016436E-15  7.79418595E-15  5.20077619E-16  2.41898314E-16  4.76909594E-01
  1.27908491E-14 -8.14407963E-16 -3.88863530E-16  2.05568573E-01  4.31337130E-16
  7.68055183E-16 -5.81181842E-16  6.65293138E-16 -2.92610932E-02 -1.97080758E-02
  2.56767482E-01  1.94276190E-01  9.09866083E-03  6.12821948E-03 -2.53248940E-03
 -2.56767482E-01 -1.94276190E-01 -9.09866083E-03 -6.12821948E-03 -2.53248940E-03
 -9.90685911E-02  1.98185519E-01  4.32576806E-01  2.91340991E-01 -5.53028009E-15
  4.73219698E-01  3.04232984E-01  2.04902428E-01 -8.13759237E-15 -2.85923244E-02
 -1.40327724E-02 -3.34409547E-03 -2.07231234E-02 -9.93328215E-16 -7.26274254E-16
 -1.26565178E-01 -1.35252874E-01  1.09742409E-02  7.39116726E-03  6.63172269E-03
 -1.26565178E-01 -1.35252874E-01  1.09742409E-02  7.39116726E-03 -6.63172269E-03
 -1.31629672E-06  1.93919619E-06 -3.14037064E-01  4.66265233E-01 -1.31420438E-15
  1.01715906E-05 -3.19785549E-01  4.74801783E-01 -7.99443905E-15  2.05052989E-02
 -2.05055388E-02 -9.69095392E-08 -9.60338428E-03  1.01220962E-15 -9.59847226E-16
 -2.24814382E-06 -4.75508652E-06 -1.25742251E-02  1.86695312E-02  2.24329180E-07
 -2.24814382E-06 -4.75508654E-06 -1.25742251E-02  1.86695312E-02 -2.24329180E-07
 -1.08850080E-01  1.57925339E-01 -2.28285333E-01 -1.53756868E-01 -8.12147274E-14
  1.53557244E+00 -5.25615289E-01 -3.54018163E-01 -2.02463390E-13 -1.96200444E-02
 -3.22880277E-02 -2.85033520E-02  1.80308031E-02  4.09710146E-15  2.95486778E-15
 -6.12494257E-02 -1.19198805E+00  2.20041227E-03  1.48188517E-03 -7.49884686E-03
 -6.12494257E-02 -1.19198805E+00  2.20041227E-03  1.48188517E-03  7.49884686E-03
  2.16823133E-14 -6.36137244E-14  5.83584232E-14  2.87694161E-14 -4.33892601E-01
 -2.31653932E-13  7.71420168E-14  5.40229741E-14 -9.81577490E-01 -4.32159339E-15
  3.25491833E-15  1.99053335E-15 -1.81722455E-15  1.00665929E-02  6.78017910E-03
  7.80892458E-02  1.40852379E+00 -6.55869789E-03 -4.41744122E-03 -1.96511009E-03
 -7.80892458E-02 -1.40852379E+00  6.55869789E-03  4.41744122E-03 -1.96511009E-03
 -3.50978253E-15  3.49359439E-15  1.17873079E-13  6.08083258E-14 -2.88100700E-01
  7.05273007E-14 -1.56705702E-13 -8.73432714E-14  1.07296901E+00  5.25113871E-15
  3.52729496E-15  5.70650973E-15  2.74877113E-15  1.39797797E-01  9.41572826E-02
 -6.88507577E-01  1.52927103E-01  2.77180186E-02  1.86687374E-02  1.96119411E-02
  6.88507577E-01 -1.52927103E-01 -2.77180186E-02 -1.86687374E-02  1.96119411E-02
  1.31753114E-02 -3.01721143E-01 -7.62845971E-01 -5.13730645E-01 -5.78470965E-14
  1.09106840E-01  9.51851032E-01  6.41027889E-01  1.65686189E-13 -9.44247153E-02
 -7.92407245E-02 -1.42297437E-01 -2.16156527E-02  1.67267116E-14  1.08292618E-14
  4.67609842E-03  2.85805888E-01  3.24067081E-02  2.18274214E-02 -6.57143178E-02
  4.67609842E-03  2.85805888E-01  3.24067081E-02  2.18274214E-02  6.57143178E-02
 -6.47601452E-07  1.88052609E-05 -5.71821445E-01  8.49087280E-01 -2.85885209E-14
 -1.29276113E-05  5.70307296E-01 -8.46856491E-01  4.68941857E-14  2.34857626E-03
 -2.33702197E-03  8.44299846E-06 -1.09486433E-03 -6.89813833E-16 -4.44802907E-16
 -1.93278883E-06 -1.19185820E-05 -7.75198825E-03  1.15056328E-02  3.75219449E-06
 -1.93278883E-06 -1.19185819E-05 -7.75198825E-03  1.15056328E-02 -3.75219449E-06
  6.90819602E-02 -1.74298312E-01  7.72196793E-02  5.20112263E-02  1.02063125E-13
 -3.32977399E-02  2.75261193E-01  1.85393700E-01 -1.58836707E-13 -3.91383143E-02
 -9.91108819E-02  2.59859364E-01  8.53702975E-02  1.99564259E-14  1.16645868E-14
  8.36471695E-01 -4.68781724E-01 -2.28248397E-03 -1.53728885E-03  1.18391518E-01
  8.36471695E-01 -4.68781724E-01 -2.28248397E-03 -1.53728885E-03 -1.18391518E-01
  1.39251966E-14  2.33298754E-13 -5.64638551E-15 -3.33198748E-14 -9.01620413E-01
 -5.84048791E-13  1.30990071E-13  1.17625319E-13  1.57726072E+00  4.13106618E-14
  2.22887881E-14  9.19268051E-14  1.14724692E-14 -1.64109800E-01 -1.10531718E-01
  3.80271811E-01 -1.36805935E+00 -8.44943960E-02 -5.69090267E-02  1.01837243E-01
 -3.80271811E-01  1.36805935E+00  8.44943960E-02  5.69090267E-02  1.01837243E-01
 -4.22223681E-02 -1.51901705E+00  2.38399752E-01  1.60570306E-01 -1.34207678E-13
  3.61674599E+00 -8.28920347E-01 -5.58300296E-01  2.55378868E-13 -2.25377003E-01
 -2.15298362E-01 -3.40411033E-01 -1.43431110E-02 -3.45170385E-14 -2.48713911E-14
 -6.03770057E-02 -1.15223319E+00 -6.22487806E-02 -4.19262376E-02  2.22690554E-02
 -6.03770057E-02 -1.15223319E+00 -6.22487806E-02 -4.19262376E-02 -2.22690554E-02
  1.06644289E-17 -7.63276821E-15 -2.20887196E-15  1.64513662E-15  8.02216967E-08
  1.74249923E-14 -7.06744003E-15  1.90176964E-15 -3.79131555E-07 -1.81717523E-14
  1.26309679E-14  4.75098261E-15  6.96979000E-17 -3.86455955E-01  5.73781550E-01
 -8.89227365E-08  3.46890873E-07 -1.97783487E-01  2.93654673E-01 -1.55702501E-07
  8.89227356E-08 -3.46890885E-07  1.97783487E-01 -2.93654673E-01 -1.55702508E-07
 -2.18712603E-02 -1.99656938E-01 -1.73759442E-02 -1.17021974E-02 -5.34357010E-16
  6.17289087E-01 -3.21041185E-01 -2.16230614E-01  9.63344619E-15 -4.39923418E-01
 -5.94255583E-02  3.70187992E-01 -5.41626346E-01  3.81839433E-15 -7.16788930E-15
 -1.97313595E-01 -1.38449897E-01  2.21917197E-01  1.49468034E-01  1.70583181E-01
 -1.97313595E-01 -1.38449897E-01  2.21917197E-01  1.49468034E-01 -1.70583181E-01
  9.19066475E-08  2.27732636E-07  3.25412509E-02 -4.83130937E-02  8.08413764E-15
 -1.38373176E-07  8.19608134E-02 -1.21686709E-01 -1.38505040E-14  6.37955004E-01
 -6.37952869E-01 -3.47855285E-06 -2.98783295E-01 -1.24099213E-14  1.63398570E-14
  2.64670452E-06 -9.15635788E-07 -1.69433047E-01  2.51558787E-01 -1.10832000E-07
  2.64670453E-06 -9.15635815E-07 -1.69433047E-01  2.51558787E-01  1.10832006E-07
 -4.30708218E-02 -4.13058945E-01  1.14037270E-01  7.68060952E-02 -5.28362323E-15
  1.10670380E+00 -4.49118834E-01 -3.02493509E-01  4.29399116E-14 -2.20142125E-01
 -6.60312498E-01  5.48465952E-01  6.26556500E-01 -2.12558979E-14 -6.64705006E-15
 -5.10078268E-01 -1.51605703E-01  1.35814413E-01  9.14769367E-02 -1.30209423E-01
 -5.10078268E-01 -1.51605703E-01  1.35814413E-01  9.14769367E-02  1.30209423E-01
  1.35811363E-15  3.58462691E-14 -1.06595811E-14 -5.93789787E-15 -7.88068512E-02
 -6.87135067E-14  3.06441943E-14  2.13899249E-14  5.59453562E-01  1.94019253E-14
  3.94188196E-14 -4.99190740E-14 -4.32424563E-14 -1.52121405E-01 -1.02457524E-01
 -2.69544420E-01 -7.14081535E-02 -3.93517051E-01 -2.65043489E-01 -5.26764646E-01
  2.69544420E-01  7.14081535E-02  3.93517051E-01  2.65043489E-01 -5.26764646E-01
  9.60860280E-16 -1.70607750E-14  5.18280110E-15  2.68152633E-15  2.44966697E-01
  1.90312132E-14 -7.06768188E-15 -5.36157638E-15 -2.41964981E-01 -4.37500836E-16
  2.18246285E-15  6.43889710E-15  6.18536444E-15  6.70390202E-01  4.51524563E-01
  4.46635039E-01 -2.11553135E-01 -3.36188614E-01 -2.26431320E-01  1.08020427E-01
 -4.46635039E-01  2.11553135E-01  3.36188614E-01  2.26431320E-01  1.08020427E-01
  3.65824632E-07  3.35484160E-07  3.64448515E-02 -5.41114472E-02  6.50008515E-16
 -5.63753396E-06  1.80412339E-01 -2.67858941E-01  8.24830101E-15 -5.54717761E-01
  5.54721307E-01 -4.88700612E-07  2.59799273E-01 -2.14921556E-13  3.02914201E-13
  1.28265547E-06  1.48203943E-06 -4.07632305E-01  6.05222533E-01 -7.56678252E-07
  1.28265548E-06  1.48203944E-06 -4.07632305E-01  6.05222533E-01  7.56678249E-07
  6.87444536E-17  4.14375317E-15 -1.56401373E-14  2.36902755E-14 -3.63910433E-08
 -9.95907294E-15 -7.74756414E-14  1.21020501E-13 -2.78095262E-07  2.42625339E-13
 -2.36176553E-13 -5.53713772E-15 -1.17641729E-13 -4.69098954E-01  6.96483979E-01
  1.23523958E-07  1.78629920E-07  3.82930630E-01 -5.68546993E-01 -1.36896451E-07
 -1.23523950E-07 -1.78629916E-07 -3.82930630E-01  5.68546993E-01 -1.36896451E-07
 -1.07321573E-02  1.72578972E-01  4.12114380E-02  2.77576130E-02 -8.99067268E-15
 -2.78765516E-01  3.43393323E-01  2.31283770E-01 -1.33726546E-14 -5.91920237E-01
 -2.48589116E-01  6.51392020E-01 -4.88713427E-01  1.37860435E-14  1.01937584E-14
  8.00963313E-02  1.30756075E-01 -4.93440680E-01 -3.32344876E-01 -4.87498326E-01
  8.00963313E-02  1.30756075E-01 -4.93440680E-01 -3.32344876E-01  4.87498326E-01
 -2.06088810E-01  6.69648066E-01 -4.30695389E-01 -2.90084517E-01  3.25732681E-15